! Touchstone file exported from HFSS 2018.2.0
!        File:           E:/Julien/ICRH/WEST Antenna/Complete Numerical Antenna Model/WEST_ICRH_Capacitor.aedt
!        Generated:      2:57:18  janv. 09, 2019
!        Design:         WEST_ICRH_Voltage_Probes_depth_m5mm_optimetrics_silver_Part2
!        Project:        WEST_ICRH_Capacitor
!        Setup:          Setup1
!        Solution:       Sweep
!
! Variables:
!        D_cylinders = 76mm
!        D_cylinders_step = 110.908mm
!        d_half_wave = 2.53333333333333mm
!        d_mesh = 7mm
!        deemb1 = 150mm
!        deemb2 = 150mm
!        deemb3 = 100mm
!        depth = -5mm
!        diameter_bellows_fixed_center_1 = 76mm
!        diameter_bellows_fixed_center_2 = 72mm
!        diameter_bellows_fixed_left_1 = 76mm
!        diameter_bellows_fixed_left_2 = 71mm
!        diameter_big_wave = 74.925mm
!        diameter_cylinder_1 = 140mm
!        diameter_cylinder_2 = 110mm
!        diameter_cylinder_3 = 80mm
!        diameter_cylinder_4 = 50mm
!        diameter_cylinder_5 = 19.985mm
!        diameter_cylinders_fixed = 143mm
!        diameter_small_wave = 51mm
!        diametre_coax_external = 216mm
!        diametre_probe_cavity = 13mm
!        diametre_probe_external = 7mm
!        diametre_probe_head = 7mm
!        diametre_probe_internal = 3mm
!        length_bellows_fixed_center_1 = 4.1mm
!        length_bellows_fixed_center_2 = 6.042mm
!        length_bellows_fixed_left_1 = 4.1mm
!        length_bellows_fixed_left_2 = 13mm
!        length_cylinders = 45.5mm
!        length_cylinders_fixed = 7mm
!        length_probe = 114mm
!        length_probe_cavity = 23mm
!        length_probe_head = 9.5mm
!        parois_cavity_probe = 1mm
!        parois_probe = 1mm
!        thickness_cylinder_1 = 1.5mm
!        thickness_cylinder_2 = 1.5mm
!        thickness_cylinder_3 = 1.5mm
!        thickness_cylinder_4 = 1.5mm
!        top_probe = 14mm
!        y0_bellows1 = 223.3mm
!
# GHZ S DB R 50.000000
! Modal data exported
! Port[1] = 1:1
! Port[2] = 2:1
! Port[3] = 3:1
0.001            2.14381931597968 -2.13766176499922 -34.6016519821689 86.817822332521  -95.0943795381372 95.1227740029021 
                -34.601651982167 86.8178223325133 0.0239024447961417 -1.86996946699986 -110.010015463393 137.730871847572 
                -95.0943795381245 95.1227740031469 -110.010015463398 137.730871847593 0.207225375478293 2.1259101895061  
! Gamma         !               4.37465527574678E-05 0.0210023200949691 1.31007156763549E-05 0.0209715880842628 0.000388418523149735 0.0213639590223572 
! Port Impedance50               0                50               0                50               0                

0.002            0.340008628199933 -3.79497379607543 -29.471313391229 86.066153364148  -110.810058816105 98.0207698343367 
                -29.4713133912275 86.0661533641442 -0.000318702562341792 -3.72522765598831 -110.752329981213 95.1510126073245 
                -110.810058816089 98.0207698342434 -110.752329981212 95.1510126073321 0.0475146244817689 0.33826503970796 
! Gamma         !               6.2112068924299E-05 0.0419790816754717 1.86009037051088E-05 0.0419355229464473 0.000557064491990078 0.042495658406218 
! Port Impedance50               0                50               0                50               0                

0.003            0.120840687160544 -5.67099577419537 -26.0815991095819 84.2868498000738 -120.711573200383 103.039113149318 
                -26.0815991095814 84.2868498000756 -0.00952292831310302 -5.58226018189652 -107.482452600025 88.9318532722364 
                -120.711573200362 103.03911314922  -107.482452600028 88.9318532722405 0.0152293346601231 0.00921571725707233 
! Gamma         !               7.59350279253278E-05 0.0629513133767705 2.27406494885557E-05 0.062898100924894 0.000684952491427788 0.0635850885666523 
! Port Impedance50               0                50               0                50               0                

0.004            0.0444811500696359 -7.55062246482956 -23.637157715003 82.4369012299332 -126.859463135944 119.747304314653 
                -23.6371577150029 82.4369012299345 -0.0188408085084352 -7.43529482080945 -105.04694733783 86.8210826603877 
                -126.859463135924 119.747304314658 -105.04694733783 86.821082660374  0.0062782460261051 -0.134046728080145 
! Gamma         !               8.76188904059702E-05 0.0839215402025612 2.62398773657683E-05 0.0838600784014766 0.00079347620602036 0.0846556256628418 
! Port Impedance50               0                50               0                50               0                

0.005            0.00427812091785471 -9.42555512048421 -21.7371334714282 80.5840996389089 -128.386427935688 142.963755511078 
                -21.7371334714282 80.5840996389091 -0.0298194184192796 -9.28246192110191 -103.142801475028 85.502733929187  
                -128.386427935699 142.963755511023 -103.142801475028 85.5027339291866 0.00309523572561297 -0.225598766901275 
! Gamma         !               9.7974495864345E-05 0.104890364357388 2.93413397105827E-05 0.104821635725235 0.000889946993105 0.105712933498076 
! Port Impedance50               0                50               0                50               0                

0.006            -0.0234948734730542 -11.2932451977724 -20.1890273199824 78.7357467314519 -126.889571118938 156.445654925991 
                -20.1890273199823 78.735746731452  -0.0427780747589309 -11.1222021166927 -101.586061243592 84.416136199012  
                -126.889571118944 156.445654925977 -101.586061243592 84.4161361990055 0.00172864576654713 -0.297820323828734 
! Gamma         !               0.000107342228291613 0.125858172392272 3.21469488065144E-05 0.125782888694522 0.00097741899350081 0.126760627246014 
! Port Impedance50               0                50               0                50               0                

0.007            -0.0466209816928468 -13.1520485369386 -18.8871180959307 76.894491607055  -124.73647858536 161.247258496777 
                -18.8871180959307 76.8944916070549 -0.0577740838542318 -12.9530669784334 -100.272856415861 83.4173371544993 
                -124.73647858536 161.247258496777 -100.272856415861 83.4173371544962 0.00104665836930533 -0.361505411119576 
! Gamma         !               0.000115948374369253 0.146825224939512 3.472447165702E-05 0.146743915382307 0.00105792773761197 0.147801152149481 
! Port Impedance50               0                50               0                50               0                

0.008            -0.068258533458431 -15.000601467742 -17.7673882432055 75.0622683777942 -122.640167736047 162.239830181918 
                -17.7673882432054 75.0622683777941 -0.0747797613272888 -14.7736869927869 -99.1397866354432 82.4596234057401 
                -122.640167736045 162.239830181933 -99.1397866354431 82.4596234057359 0.000663628231678059 -0.420965763121156 
! Gamma         !               0.000123955744774757 0.167791687306122 3.71226685951007E-05 0.167704765302498 0.00113294604004013 0.168836066897509 
! Port Impedance50               0                50               0                50               0                

0.009            -0.0898652451176698 -16.8376680398997 -16.7881883536268 73.2407277512526 -120.720917235066 161.688082280678 
                -16.7881883536268 73.2407277512527 -0.0937304289800954 -16.5827655394452 -98.1454562962227 81.525569418569  
                -120.720917235067 161.688082280678 -98.1454562962227 81.5255694185695 0.000428763622361511 -0.478154614158002 
! Gamma         !               0.000131478881536862 0.188757667043204 3.93758433346482E-05 0.18866547066816 0.00120351425705724 0.189866389397436 
! Port Impedance50               0                50               0                50               0                

0.01             -0.11216407100477 -18.6620870228891 -15.9209044947833 71.431334523855  -118.980621711021 160.483742453582 
                -15.9209044947833 71.4313345238552 -0.114541241057875 -18.379079482316 -97.2613701165369 80.6081748935559 
                -118.980621711021 160.48374245358  -97.261370116537 80.608174893552  0.000275720980231988 -0.534044922277571 
! Gamma         !               0.000138598332815743 0.209723239723053 4.15081183259783E-05 0.209626054114197 0.00127036562972785 0.210892836181815 
! Port Impedance50               0                50               0                50               0                

0.011            -0.135520019911424 -20.472752338342 -15.1450211461498 69.6354102233812 -117.399808983909 158.990400704511 
                -15.1450211461498 69.6354102233817 -0.137114485652143 -20.1614815986991 -96.467075187147 79.7046003639503 
                -117.399808983907 158.990400704516 -96.4670751871471 79.7046003639497 0.000172043022434828 -0.589158307113958 
! Gamma         !               0.000145372547097214 0.2306884627285  4.35369974928128E-05 0.230586532827778 0.00133403286861674 0.231915951609199 
! Port Impedance50               0                50               0                50               0                

0.012            -0.160106533985004 -22.2686085229913 -14.4453148502574 67.8541563511162 -115.957351161357 157.366079550278 
                -14.4453148502573 67.8541563511166 -0.161343463802254 -21.9289032083674 -95.7473868522616 78.8137990792403 
                -115.957351161358 157.366079550274 -95.7473868522615 78.8137990792388 0.000100248702049941 -0.643790905184303 
! Gamma         !               0.000151846012256288 0.251653381908956 4.54758040081543E-05 0.251546920541776 0.00139492184554544 0.252936170726783 
! Port Impedance50               0                50               0                50               0                

0.013            -0.185986533220029 -24.0486537000516 -13.8101647136319 66.0886671769426 -114.634548388274 155.683916425465 
                -13.8101647136319 66.0886671769428 -0.187114972503478 -23.6803563521384 -95.0907136669431 77.9355301192972 
                -114.634548388274 155.683916425467 -95.090713666943 77.9355301192974 5.0092836354747E-05 -0.698118539729789 
! Gamma         !               0.000158054202628537 0.272618034811938 4.73351618728028E-05 0.272507228502508 0.00145335660295671 0.27395384996831 
! Port Impedance50               0                50               0                50               0                

0.014            -0.213155281475141 -25.8119460360814 -13.2304865464147 64.3399365119572 -113.415658130975 153.979762840005 
                -13.2304865464147 64.3399365119576 -0.214311147063609 -25.4149352581612 -94.4879983595403 77.0699151120424 
                -113.415658130973 153.979762840006 -94.4879983595403 77.069915112043  1.51304084855565E-05 -0.752249327484088 
! Gamma         !               0.000164026407335187 0.293582452464931 4.91238428740173E-05 0.293467466003356 0.0015096051076616 0.294969284097889 
! Port Impedance50               0                50               0                50               0                

0.015            -0.241564767091366 -27.5576112535392 -12.6990338368263 62.6088612062572 -112.287589147739 152.272142766919 
                -12.6990338368262 62.6088612062576 -0.242810968508833 -27.1318170077884 -93.9320220450579 76.2172273344823 
                -112.287589147737 152.272142766916 -93.932022045058 76.2172273344834 -8.92868608487334E-06 -0.806251601338677 
! Gamma         !               0.000169787330869601 0.314546660580832 5.08492458507499E-05 0.314427640745805 0.00156389378319154 0.315982717630025 
! Port Impedance50               0                50               0                50               0                

0.016            -0.271138526969367 -29.2848497038251 -12.2099240941795 60.8962431266454 -111.239449595888 150.571111515796 
                -12.2099240941795 60.8962431266458 -0.272491566515542 -28.8302613984782 -93.416932011152 75.37778705095   
                -111.239449595886 150.571111515801 -93.416932011152 75.3777870509488 -2.50665384906831E-05 -0.860169478522024 
! Gamma         !               0.000175358042741586 0.335510680516639 5.2517681035793E-05 0.335387759126609 0.00161641608312102 0.336994353873251 
! Port Impedance50               0                50               0                50               0                

0.017            -0.30178124107919 -30.9929421250924 -11.7583088421279 59.2027907108606 -110.262128777441 148.882391423833 
                -11.7583088421278 59.2027907108609 -0.303229375105875 -30.5096100473185 -92.937912213669 74.5519082081886 
                -110.262128777441 148.882391423833 -92.9379122136689 74.5519082081861 -3.54238749106331E-05 -0.914031903244561 
! Gamma         !               0.00018075660166489 0.356474530087757 5.41345569552318E-05 0.356347826481708 0.00166733809450967 0.358004362595615 
! Port Impedance50               0                50               0                50               0                

0.018            -0.333385309641985 -32.6812536359919 -11.3401381061383 57.5291207492524 -109.347950719879 147.20938999021  
                -11.3401381061383 57.5291207492526 -0.334901166431652 -32.1692848052381 -92.4909477642472 73.739871167311  
                -109.347950719878 147.20938999021  -92.4909477642473 73.7398711673131 -4.15737294118768E-05 -0.967858082363905 
! Gamma         !               0.000185998519968843 0.377438224261765 5.57045194976605E-05 0.37730784729405 0.00171680269794819 0.379012886554787 
! Port Impedance50               0                50               0                50               0                

0.019            -0.365835593466964 -34.349235810672 -10.9519887748307 55.8757607412194 -108.490397876949 145.554223952193 
                -10.9519887748307 55.8757607412196 -0.367384974037415 -33.8087855669982 -92.0726530290955 72.9419091938976 
                -108.490397876949 145.554223952192 -92.0726530290954 72.9419091938982 -4.46910663755168E-05 -1.02166084915588 
! Gamma         !               0.000191097144666247 0.398401775736971 5.72315660358297E-05 0.398267825366895 0.00176493298781362 0.40002004694946 
! Port Impedance50               0                50               0                50               0                

0.02             -0.399012969707547 -35.9964268786968 -10.5909371721738 54.2431519678349 -107.683893467176 143.918257548083 
                -10.5909371721738 54.2431519678352 -0.400560911291828 -35.4276875693117 -91.6801438140526 72.1582024869429 
                -107.683893467176 143.918257548084 -91.6801438140525 72.1582024869422 -4.56630409535108E-05 -1.075448797343  
! Gamma         !               0.000196063986685735 0.419365195412071 5.87191440309306E-05 0.419227763964494 0.00181183524012717 0.421025947852468 
! Port Impedance50               0                50               0                50               0                

0.021            -0.432797074814396 -37.6224502212761 -10.2544628730636 52.6316532855305 -106.923630285496 142.302394855761 
                -10.2544628730636 52.6316532855307 -0.434311888825651 -37.025638270889 -91.3109407513435 71.3888764703371 
                -106.923630285496 142.302394855761 -91.3109407513435 71.388876470336  -4.51636171985409E-05 -1.12922766434572 
! Gamma         !               0.000200909009585793 0.440328492757981 6.01702375048526E-05 0.440187665923463 0.00185760152788495 0.44203067972774 
! Port Impedance50               0                50               0                50               0                

0.022            -0.467068453744705 -39.2270114104526 -9.94037500767146 51.0415455596286 -106.205435606321 140.707243743735 
                -9.94037500767144 51.0415455596288 -0.46852423471102 -38.6023539052618 -90.9628951838863 70.6340025556569 
                -106.205435606321 140.707243743736 -90.9628951838863 70.6340025556574 -4.37058008167283E-05 -1.18300124475204 
! Gamma         !               0.000205640881404082 0.461291676106064 6.158744247229E-05 0.46114753373912 0.00190231201273436 0.463034322162788 
! Port Impedance50               0                50               0                50               0                

0.023            -0.501710250120647 -40.8098940741025 -9.64675502054093 49.473036607636  -105.525663941584 139.133210941878 
                -9.64675502054092 49.4730366076361 -0.503088221706835 -40.1576157911005 -90.6341315431517 69.8936003611811 
                -105.525663941584 139.133210941879 -90.6341315431516 69.8936003611817 -4.167925418642E-05 -1.23677200336388 
! Gamma         !               0.000210267191325021 0.482254752867966 6.29730318355696E-05 0.48210736963132 0.0019460369240835 0.484036945957744 
! Port Impedance50               0                50               0                50               0                

0.024            -0.536609525145431 -42.370954877253 -9.37191164855491 47.9262665004913 -104.881111308065 137.580559233146 
                -9.37191164855492 47.9262665004914 -0.537898506643433 -41.6912664765462 -90.3230020010053 69.1676407906744 
                -104.881111308065 137.580559233147 -90.3230020010052 69.1676407906739 -3.93780407284693E-05 -1.29054149234895 
! Gamma         !               0.00021479463306199 0.503217729701427 6.43290103096817E-05 0.503067175594124 0.00198883823943845 0.50503861470491 
! Port Impedance50               0                50               0                50               0                

0.025            -0.571658266994648 -43.9101178976279 -9.11434509521483 46.4013130675439 -104.268946169871 136.049443322948 
                -9.11434509521482 46.4013130675439 -0.572854487667914 -43.2032057847832 -90.028050379769 68.4560496085741 
                -104.268946169872 136.049443322947 -90.028050379769 68.4560496085756 -3.70215084938073E-05 -1.34431063839745 
! Gamma         !               0.000219229157609708 0.52418061263469 6.5657160172793E-05 0.524026953433056 0.00203077108759498 0.526039385976627 
! Port Impedance50               0                50               0                50               0                

0.026            -0.606754137806907 -45.4273686473259 -8.87271821266608 44.8981974615616 -103.686653383257 134.53993342026  
                -8.87271821266609 44.8981974615617 -0.607860585512748 -44.6933868185114 -89.7479831320742 67.7587112820486 
                -103.686653383256 134.53993342026  -89.7479831320742 67.7587112820462 -3.47702823310098E-05 -1.39807994223574 
! Gamma         !               0.000223576098665037 0.545143407159943 6.69590788301701E-05 0.544986704793088 0.00207188490300638 0.547039312219456 
! Port Impedance50               0                50               0                50               0                

0.027            -0.641800997040939 -46.9227479585912 -8.64583308570106 43.4168896585235 -103.131988348241 133.052031552829 
                -8.64583308570105 43.4168896585235 -0.642826455164486 -46.1618119717278 -89.4816457803545 67.0754729396864 
                -103.131988348241 133.05203155283  -89.4816457803545 67.0754729396874 -3.27386897195034E-05 -1.45184961820014 
! Gamma         !               0.000227840274346521 0.5661061183041  6.82362092789845E-05 0.565946431179841 0.00211222436335427 0.568038441432768 
! Port Impedance50               0                50               0                50               0                

0.028            -0.676709234854789 -48.3963459141052 -8.4326118252878 41.9573137893967 -102.602939230307 131.585683455025 
                -8.43261182528779 41.9573137893966 -0.677667134318806 -47.6085289887215 -89.2280036162772 66.4061483454477 
                -102.602939230307 131.585683455023 -89.2280036162773 66.4061483454474 -3.10045330687387E-05 -1.50561969229036 
! Gamma         !               0.000232026068872386 0.587068750683308 6.9489864570273E-05 0.586906133975906 0.00215183014312005 0.589036817691906 
! Port Impedance50               0                50               0                50               0                

0.029            -0.711395945632057 -49.8482959643865 -8.23208067619529 40.5193532246635 -102.09769560979 130.140787657913 
                -8.23208067619529 40.5193532246634 -0.712303134856902 -49.0336271026375 -88.9861257558555 65.7505218170825 
                -102.09769560979 130.140787657915 -88.9861257558555 65.7505218170829 -2.96168517703517E-05 -1.55939007113755 
! Gamma         !               0.000236137497659882 0.608031308545927 7.07212473053461E-05 0.607865814453716 0.0021907395145069 0.610034481560979 
! Port Impedance50               0                50               0                50               0                

0.03             -0.745784968931502 -51.2787693390759 -8.04335675929023 39.1028553549936 -101.614622288665 128.71720273222  
                -8.04335675929023 39.1028553549937 -0.746660483314559 -50.4372332794712 -88.7551718614234 65.1083520388508 
                -101.614622288665 128.717202732221 -88.7551718614235 65.1083520388512 -2.86021357081504E-05 -1.61316059039996 
! Gamma         !               0.000240178258971774 0.628993795807442 7.19314651029624E-05 0.628825473786007 0.00222898682421287 0.631031470428116 
! Port Impedance50               0                50               0                50               0                

0.031            -0.77980682252875 -52.6879698266261 -7.86563692787369 37.7076360318738 -101.15223726554 127.314753249196 
                -7.86563692787369 37.7076360318738 -0.780670715982732 -51.8195085878854 -88.5343810006363 64.4793757319541 
                -101.15223726554 127.314753249196 -88.5343810006364 64.4793757319533 -2.79693286908525E-05 -1.66693104849411 
! Gamma         !               0.000244151774830743 0.649956216079771 7.31215428522228E-05 0.649785113054589 0.00226660387099174 0.65202781878654 
! Port Impedance50               0                50               0                50               0                

0.032            -0.813398549664512 -54.0761289690467 -7.69818833532583 36.3334836494873 -100.709193103267 125.933234803712 
                -7.69818833532583 36.3334836494872 -0.814270833914504 -53.180644710707 -88.3230622312643 63.8633111560298 
                -100.709193103267 125.933234803713 -88.3230622312643 63.8633111560296 -2.77138738597603E-05 -1.72070122980869 
! Gamma         !               0.000248061223501625 0.67091857269664 7.42924324400808E-05 0.67074473325795 0.00230362020516675 0.673023558477658 
! Port Impedance50               0                50               0                50               0                

0.033            -0.846503500067977 -55.4435016952099 -7.54034039967874 34.980162863414  -100.284261076778 124.572418316189 
                -7.54034039967874 34.9801628634139 -0.847403222743375 -54.5208606102301 -88.120586589964 63.2598614222147 
                -100.284261076778 124.572418316189 -88.1205865899641 63.2598614222156 -2.7820991978768E-05 -1.77447092034699 
! Gamma         !               0.000251909565439007 0.691880868736184 7.54450205218161E-05 0.691704335318023 0.00234006336761487 0.694018718907112 
! Port Impedance50               0                50               0                50               0                

0.034            -0.879071061808363 -56.7903623977199 -7.39147791753047 33.6474179528342 -99.8763176142547 123.232053755775 
                -7.39147791753046 33.6474179528341 -0.880015541860575 -55.8403993563837 -87.9263802312455 62.6687176037607 
                -99.8763176142546 123.232053755774 -87.9263802312456 62.6687176037613 -2.82683399695576E-05 -1.82823991790986 
! Gamma         !               0.000255699564233171 0.712843107041496 7.6580134793619E-05 0.712663920086345 0.00237595908240989 0.715013327240961 
! Port Impedance50               0                50               0                50               0                

0.035            -0.911056358589646 -58.1170014441668 -7.2510351306348 32.3349758411208 -99.4843326418402 121.911873383534 
                -7.2510351306348 32.3349758411207 -0.91206058716352 -57.139525124277 -87.7399185150799 62.0895616345849 
                -99.4843326418402 121.911873383536 -87.7399185150799 62.0895616345849 -2.90281646460663E-05 -1.88200803834662 
! Gamma         !               0.000259433803769793 0.733805290239615 7.76985491313099E-05 0.733623488349736 0.0024113314143969 0.736007408586569 
! Port Impedance50               0                50               0                50               0                

0.036            -0.94241992479743 -59.4237221032412 -7.11849058764447 31.042548795346  -99.1073595177441 120.611594588183 
                -7.11849058764445 31.0425487953458 -0.943496131277895 -58.4185203654973 -87.5607208820239 61.5220689897154 
                -99.1073595177445 120.611594588183 -87.560720882024 61.5220689897164 -3.00690427373989E-05 -1.93577511898726 
! Gamma         !               0.000263114702550346 0.754767420759207 7.88009878788018E-05 0.754583040835603 0.002446202900495 0.757000986160967 
! Port Impedance50               0                50               0                50               0                

0.037            -0.973127368472193 -60.7108378591164 -6.9933626738173 29.7698368287326 -98.7445263008603 119.330922370746 
                -6.9933626738173 29.7698368287324 -0.974284744871873 -59.6776831556988 -87.3883463862583 60.9659111446235 
                -98.7445263008603 119.330922370747 -87.3883463862581 60.9659111446245 -3.13572804775253E-05 -1.98954102007043 
! Gamma         !               0.000266744525898659 0.775729500847129 7.98881295035723E-05 0.775542578216899 0.00248059466147616 0.777994081448318 
! Port Impedance50               0                50               0                50               0                

0.038            -1.00314903045275 -61.9786700831378 -6.8752057051903 28.5165298318619 -98.395028145813 118.069551524236 
                -6.87520570519029 28.5165298318618 -1.00439360241913 -60.9173247194157 -87.2223897816848 60.420757813044  
                -98.3950281458132 118.069551524236 -87.2223897816848 60.4207578130446 -3.28580319458658E-05 -2.04330562476792 
! Gamma         !               0.00027032539660014 0.796691532583944 8.09606097828098E-05 0.796502101116767 0.00251452649930761 0.798986714347399 
! Port Impedance50               0                50               0                50               0                

0.039            -1.03245964622191 -63.2275460296438 -6.76360650238255 27.2823094588924 -98.0581206535137 116.827168547096 
                -6.76360650238254 27.2823094588923 -1.03379427552476 -62.1377671316028 -87.0624780758009 59.8862789652321 
                -98.0581206535139 116.827168547095 -87.0624780758009 59.8862789652327 -3.4536184790714E-05 -2.09706883824688 
! Gamma         !               0.000273859304378182 0.81765351789845 8.20190246413801E-05 0.817461610112894 0.00254801698382514 0.819978903309577 
! Port Impedance50               0                50               0                50               0                

0.04             -1.06103801549633 -64.4577971221896 -6.65818137399487 26.066850794507  -97.7331140359824 115.603453324062 
                -6.65818137399486 26.0668507945069 -1.06246251669893 -63.3393411941124 -86.9082674815984 59.3621466305994 
                -97.7331140359824 115.603453324063 -86.9082674815983 59.3621466305995 -3.63570533295767E-05 -2.15083058609626 
! Gamma         !               0.000277348114501632 0.838615458581228 8.30639327296127E-05 0.838421105741572 0.00258108353147369 0.840970665467533 
! Port Impedance50               0                50               0                50               0                

0.041            -1.08886668333058 -65.6697574971118 -6.55857345141589 24.8698238260762 -97.4193679781059 114.39808060379  
                -6.55857345141588 24.869823826076  -1.09037803624412 -64.5223844841448 -86.7594407101721 58.8480364904716 
                -97.4193679781062 114.398080603791 -86.7594407101721 58.8480364904725 -3.8286912307542E-05 -2.20459081235701 
! Gamma         !               0.000280793575732354 0.859577356297242 8.40958578035023E-05 0.859380588501467 0.00261374247805955 0.861962016754934 
! Port Impedance50               0                50               0                50               0                

0.042            -1.11593163543589 -66.8637627729057 -6.46445032638744 23.6908947438445 -97.1162870983271 113.210721299082 
                -6.46445032638745 23.6908947438444 -1.11752427471005 -65.6872395706446 -86.6157045566834 58.3436292682911 
                -97.1162870983273 113.210721299081 -86.6157045566834 58.3436292682916 -4.0293398940724E-05 -2.25834947733148 
! Gamma         !               0.000284197327758011 0.8805392125975  8.511529095078E-05 0.880340058857113 0.00264600914686148 0.88295297201718 
! Port Impedance50               0                50               0                50               0                

0.043            -1.14222200953102 -68.0401490159882 -6.37550195042949 22.5297270900098 -96.8233169259993 112.041043632513 
                -6.37550195042948 22.5297270900097 -1.14388817316182 -66.8342523936543 -86.4767877403713 57.8486119258833 
                -96.8233169259992 112.041043632513 -86.4767877403713 57.8486119258833 -4.23458065495813E-05 -2.31210655529925 
! Gamma         !               0.000287560908207941 0.901501028929784 8.61226926921554E-05 0.90129951724213 0.00267789791300566 0.903943545113447 
! Port Impedance50               0                50               0                50               0                

0.044            -1.16772982382587 -69.199251875853 -6.2914387615594 21.3859827755183 -96.5399403260458 110.888714147459 
                -6.2914387615594 21.3859827755182 -1.16945994330284 -67.9637708007852 -86.3424389658094 57.3626786755782 