! Touchstone file exported from HFSS 2018.2.0
!        File:           E:/Julien/ICRH/WEST Antenna/Complete Numerical Antenna Model/WEST_ICRH_Capacitor.aedt
!        Generated:      5:40:07  janv. 09, 2019
!        Design:         WEST_ICRH_Voltage_Probes_depth_m5mm_optimetrics_silver_Part2
!        Project:        WEST_ICRH_Capacitor
!        Setup:          Setup1
!        Solution:       Sweep
!
! Variables:
!        D_cylinders = 110mm
!        D_cylinders_step = 110.908mm
!        d_half_wave = 3.66666666666667mm
!        d_mesh = 7mm
!        deemb1 = 150mm
!        deemb2 = 150mm
!        deemb3 = 100mm
!        depth = -5mm
!        diameter_bellows_fixed_center_1 = 76mm
!        diameter_bellows_fixed_center_2 = 72mm
!        diameter_bellows_fixed_left_1 = 76mm
!        diameter_bellows_fixed_left_2 = 71mm
!        diameter_big_wave = 74.925mm
!        diameter_cylinder_1 = 140mm
!        diameter_cylinder_2 = 110mm
!        diameter_cylinder_3 = 80mm
!        diameter_cylinder_4 = 50mm
!        diameter_cylinder_5 = 19.985mm
!        diameter_cylinders_fixed = 143mm
!        diameter_small_wave = 51mm
!        diametre_coax_external = 216mm
!        diametre_probe_cavity = 13mm
!        diametre_probe_external = 7mm
!        diametre_probe_head = 7mm
!        diametre_probe_internal = 3mm
!        length_bellows_fixed_center_1 = 4.1mm
!        length_bellows_fixed_center_2 = 6.042mm
!        length_bellows_fixed_left_1 = 4.1mm
!        length_bellows_fixed_left_2 = 13mm
!        length_cylinders = 45.5mm
!        length_cylinders_fixed = 7mm
!        length_probe = 114mm
!        length_probe_cavity = 23mm
!        length_probe_head = 9.5mm
!        parois_cavity_probe = 1mm
!        parois_probe = 1mm
!        thickness_cylinder_1 = 1.5mm
!        thickness_cylinder_2 = 1.5mm
!        thickness_cylinder_3 = 1.5mm
!        thickness_cylinder_4 = 1.5mm
!        top_probe = 14mm
!        y0_bellows1 = 223.3mm
!
# GHZ S DB R 50.000000
! Modal data exported
! Port[1] = 1:1
! Port[2] = 2:1
! Port[3] = 3:1
0.001            1.90361828011877 -6.19007878660613 -19.7736572396304 83.4934150204464 -111.809373292042 173.313476717553 
                -19.7736572396323 83.4934150204174 -0.016281630292585 -6.15994151754425 -114.770300709486 103.756093190931 
                -111.809373292048 173.313476717512 -114.770300709465 103.756093190973 0.173757465272984 2.65347018332688 
! Gamma         !               4.37383950298437E-05 0.0210023085516803 1.3130517044861E-05 0.0209716184540714 0.000388408839047724 0.021364274337894 
! Port Impedance50               0                50               0                50               0                

0.002            0.177727629257714 -12.1337907822555 -14.7542912993743 77.7360534708604 -136.05814140489 56.4452506328654 
                -14.7542912993746 77.7360534708557 -0.14024613228381 -12.1992376882141 -110.362070315424 84.7662932620886 
                -136.058141405215 56.4452506349669 -110.362070315413 84.7662932621202 0.0434465365874076 0.44215388758262 
! Gamma         !               6.2099062471755E-05 0.0419790651481137 1.86434084799635E-05 0.041935565977614 0.000557136644494424 0.0424963088986825 
! Port Impedance50               0                50               0                50               0                

0.003            -0.192037367803396 -17.9422106054603 -11.5360885610157 71.9362481818255 -126.379649451895 155.312242351616 
                -11.5360885610158 71.9362481818239 -0.312662428567279 -18.0481619211406 -107.564135017856 81.2231905130722 
                -126.379649451886 155.31224235182  -107.564135017856 81.2231905130633 0.0134484478993585 0.0405861900662829 
! Gamma         !               7.59183378701339E-05 0.0629512931194671 2.2792723052849E-05 0.0628981534925863 0.00068514114523538 0.0635860041391523 
! Port Impedance50               0                50               0                50               0                

0.004            -0.479317462367345 -23.4882747758723 -9.32963708921548 66.3905671445226 -120.632419487738 154.536679384424 
                -9.3296370892155 66.3905671445223 -0.537034792967836 -23.6306572973012 -105.390431770891 78.5232091949446 
                -120.632419487706 154.536679384323 -105.390431770894 78.5232091949267 0.00541113299320452 -0.121578436090468 
! Gamma         !               8.75990813690114E-05 0.0839215167689962 2.63000395421024E-05 0.0838601391128772 0.000793783887262972 0.0846567747780009 
! Port Impedance50               0                50               0                50               0                

0.005            -0.773322832299535 -28.7189592493522 -7.71720444888446 61.1559131575122 -116.886249811748 150.395353327207 
                -7.71720444888448 61.1559131575114 -0.803936596335077 -28.8960900649389 -103.718004428283 76.138981439731  
                -116.886249811763 150.395353327162 -103.718004428284 76.138981439763  0.00264831590327633 -0.219587311512915 
! Gamma         !               9.79519204809809E-05 0.104890338128695 2.94086675458912E-05 0.104821703609454 0.000890377420060718 0.1057142925029  
! Port Impedance50               0                50               0                50               0                

0.006            -1.08528416486714 -33.6064858545203 -6.49360407360233 56.2612907521124 -114.03027511173 145.864721180311 
                -6.49360407360233 56.261290752112  -1.1023999267324 -33.8168898042997 -102.3962180244  74.0521940780166 
                -114.030275111735 145.864721180313 -102.3962180244  74.0521940780067 0.00148677637086553 -0.294486513744521 
! Gamma         !               0.000107317148491953 0.125858143643241 3.22207573331743E-05 0.125782963050357 0.000977973013633442 0.126762175164003 
! Port Impedance50               0                50               0                50               0                

0.007            -1.41202598346707 -38.1430707204544 -5.5420743187178 51.7156380214536 -111.726292383882 141.460332712273 
                -5.54207431871781 51.7156380214534 -1.42188293238659 -38.3850441247659 -101.323207125036 72.2527389105446 
                -111.726292383881 141.460332712284 -101.323207125037 72.2527389105435 0.000910875900226867 -0.35945218982333 
! Gamma         !               0.000115920992048475 0.146825193874573 3.48042341715314E-05 0.146743995688231 0.00105860356532438 0.147802871484376 
! Port Impedance50               0                50               0                50               0                

0.008            -1.74728017136001 -42.3358429208497 -4.78904824486204 47.5127751551274 -109.809774312475 137.316217241198 
                -4.78904824486201 47.5127751551273 -1.75307621365379 -42.6073642719672 -100.431174766936 70.7222632596976 
                -109.809774312475 137.316217241185 -100.431174766937 70.7222632597056 0.000585391506726022 -0.419590290314863 
! Gamma         !               0.000123926218960397 0.167791654085156 3.72079712752612E-05 0.167704851150392 0.00113374065030389 0.168837943474512 
! Port Impedance50               0                50               0                50               0                

0.009            -2.08473574095499 -46.2019387931958 -4.1849369846897 43.6362965731515 -108.181905580967 133.464055459012 
                -4.18493698468968 43.6362965731514 -2.08822388246687 -46.5006949377287 -99.6736593592419 69.436153534437  
                -108.181905580968 133.464055458996 -99.6736593592415 69.4361535344383 0.000382792111183153 -0.477162579548702 
! Gamma         !               0.000131447341186195 0.188757631796933 3.94663512605538E-05 0.188665561723891 0.00120442426998211 0.189868411641004 
! Port Impedance50               0                50               0                50               0                

0.01             -2.41897738862401 -49.7643615338559 -3.69477925005404 40.063746403275  -106.776750602034 129.900152900019 
                -3.694779250054  40.0637464032749 -2.42115611110742 -50.0878104406874 -99.0179163659394 68.366521569125  
                -106.776750602035 129.900152900014 -99.01791636594  68.3665215691298 0.00024819985983053 -0.533277840962498 
! Gamma         !               0.000138564885689769 0.209723202561577 4.16035519722137E-05 0.209626150095929 0.00127138768190566 0.210894994427987 
! Port Impedance50               0                50               0                50               0                

0.011            -2.74571098456571 -53.0488424125482 -3.29316077015263 36.7697967149281 -105.547634381049 126.607197915617 
                -3.29316077015261 36.7697967149281 -2.74715893920549 -53.3942782244031 -98.4403692331552 67.4847127129214 
                -105.54763438105 126.607197915612 -98.4403692331549 67.4847127129193 0.000155156067189839 -0.588524046384537 
! Gamma         !               0.000145337285481764 0.230688423746219 4.36371176327542E-05 0.230586633493575 0.0013351637263207 0.231918237612052 
! Port Impedance50               0                50               0                50               0                

0.012            -3.06171702734648 -56.0816637807856 -2.96120082339529 33.7284582019389 -104.46026192175 123.562877290611 
                -2.96120082339526 33.7284582019388 -3.06276963023685 -56.4462706214421 -97.9237705625842 66.7630809549233 
                -104.460261921751 123.562877290602 -97.923770562584 66.7630809549287 8.94749284318692E-05 -0.643232683886402 
! Gamma         !               0.000151809016575363 0.251653341187743 4.5580402225579E-05 0.251547025681617 0.00139615842374019 0.252938577332891 
! Port Impedance50               0                50               0                50               0                

0.013            -3.36470517183264 -58.8882724564196 -2.6846409326258 30.9144935484888 -103.488770281029 120.743741524021 
                -2.68464093262578 30.9144935484888 -3.36555378845657 -59.2691639791783 -97.4553484003655 66.1760805165564 
                -103.488770281029 120.743741524015 -97.455348400366 66.1760805165554 4.2790773124919E-05 -0.69759981085823 
! Gamma         !               0.000158015543797164 0.272617992423459 4.74440544162243E-05 0.272507337932463 0.00145469596085239 0.27395637090055 
! Port Impedance50               0                50               0                50               0                

0.014            -3.65314524634122 -61.492481343542 -2.45257129431287 28.3042364254125 -102.613265861213 118.127039451424 
                -2.45257129431285 28.3042364254125 -3.65389542482369 -61.8867277793751 -97.0255505703477 65.7008236328394 
                -102.613265861212 118.127039451419 -97.0255505703473 65.7008236328424 9.76019258339502E-06 -0.751745820795209 
! Gamma         !               0.000163986148397912 0.293582408472453 4.92368663981026E-05 0.293467579560993 0.00151104444321258 0.294971913803586 
! Port Impedance50               0                50               0                50               0                

0.015            -3.926107514671  -63.9160779156952 -2.25655141382303 25.8759986377281 -101.818199068111 115.691573534769 
                -2.25655141382301 25.8759986377283 -3.92681417110936 -64.3207239645822 -96.627170650746 65.3172648629886 
                -101.81819906811 115.691573534768 -96.6271706507465 65.317264862986  -1.3249659805029E-05 -0.805746851514967 
! Gamma         !               0.000169745528233419 0.314546615040701 5.09662542229531E-05 0.314427758286449 0.00156543043019929 0.31598545116655 
! Port Impedance50               0                50               0                50               0                

0.016            -4.18312466142908 -66.1786970235001 -2.08998710470676 23.6102090493501 -101.091248451517 113.418047297158 
                -2.08998710470675 23.6102090493501 -4.18381365109684 -66.5907739201852 -96.2547275889335 65.0081468649935 
                -101.091248451516 113.418047297152 -96.2547275889341 65.0081468649935 -2.88253125316577E-05 -0.859652168821993 
! Gamma         !               0.00017531474716357 0.335510633479473 5.26385427823607E-05 0.335387880520294 0.00161804750944657 0.336997186816853 
! Port Impedance50               0                50               0                50               0                

0.017            -4.42407828209596 -68.2978548036506 -1.94768061031443 21.4893884299123 -100.422532231683 111.289141744353 
                -1.94768061031442 21.4893884299124 -4.42475963797483 -68.7143892175472 -95.9040191132053 64.7588083572924 
                -100.422532231682 111.289141744354 -95.9040191132055 64.7588083572888 -3.88697053498815E-05 -0.91349421250218 
! Gamma         !               0.000180711859073426 0.356474481599406 5.42591531375166E-05 0.356347951610709 0.00166906189962752 0.358007290966293 
! Port Impedance50               0                50               0                50               0                

0.018            -4.64910830382128 -70.2890731712187 -1.82550090969736 19.4980314831211 -99.8040387416545 109.289448930043 
                -1.82550090969735 19.4980314831211 -4.6497842547651 -70.7070947741863 -95.5717969015375 64.5569237420937 
                -99.8040387416542 109.289448930042 -95.5717969015376 64.5569237420945 -4.48148546964262E-05 -0.967294615798509 
! Gamma         !               0.000185952372157294 0.377438174364075 5.5832741916582E-05 0.377307976050926 0.00171861660896914 0.379015906753469 
! Port Impedance50               0                50               0                50               0                

0.019            -4.85854211721109 -72.1660489512733 -1.72013918587805 17.6224425772885 -99.2292076769205 107.40533481014  
                -1.72013918587804 17.6224425772886 -4.8592117974454 -72.5825977446699 -95.255528420401 64.3922193174083 
                -99.22920767692  107.405334810141 -95.2555284204015 64.3922193174055 -4.77547301867491E-05 -1.02106792426834 
! Gamma         !               0.000191049629880132 0.398401724468388 5.73633157098299E-05 0.398267957652926 0.00176683485390722 0.400023155705296 
! Port Impedance50               0                50               0                50               0                

0.02             -5.05283987580816 -73.9408390306151 -1.62892559544566 15.8505542354601 -98.6926176510698 105.624772491278 
                -1.62892559544565 15.8505542354601 -5.05350193712483 -74.3529729513369 -94.9532211800523 64.2561932824791 
                -98.6926176510691 105.624772491275 -94.9532211800525 64.2561932824796 -4.85329139928646E-05 -1.07482395411974 
! Gamma         !               0.000196015140117505 0.419365142808122 5.88543299114306E-05 0.419227899688451 0.00181382302572003 0.421029142178686 
! Port Impedance50               0                50               0                50               0                

0.021            -5.232552686722  -75.6240445848507 -1.54969072196363 14.1717456572187 -98.1897500818757 103.937169031102 
                -1.54969072196361 14.1717456572188 -5.23320659695826 -76.0288475179912 -94.6632923358601 64.141854669367  
                -98.1897500818753 103.9371690311   -94.6632923358605 64.141854669366  -4.78030802021692E-05 -1.12856932181332 
! Gamma         !               0.000200858863788932 0.440328438851645 6.03087753995405E-05 0.44018780500065 0.00185967330515871 0.442033956884738 
! Port Impedance50               0                50               0                50               0                

0.022            -5.39829089796975 -77.2249850244376 -1.48065994522214 12.576670869744  -97.7168087299453 102.333198365405 
                -1.48065994522213 12.5766708697441 -5.39893743800292 -77.6195751119919 -94.3844714619883 64.0434884903783 
                -97.7168087299455 102.333198365405 -94.3844714619886 64.0434884903774 -4.60722627555905E-05 -1.18230845569782 
! Gamma         !               0.000205589466637417 0.461291620928078 6.1729254148619E-05 0.461147676090585 0.00190446595391692 0.463037679627338 
! Port Impedance50               0                50               0                50               0                

0.023            -5.55070020398647 -78.7518570762455 -1.42037228184562 11.0571012674026 -97.270580350072 100.804646676097 
                -1.42037228184562 11.0571012674026 -5.551341498359  -79.1333950903125 -94.1157277303093 63.9564495284453 
                -97.2705803500723 100.804646676096 -94.1157277303091 63.9564495284473 -4.37327284370664E-05 -1.23604427649356 
! Gamma         !               0.000210214535837647 0.482254696447062 6.31180442780761E-05 0.482107515183243 0.00194827129391835 0.484040381397274 
! Port Impedance50               0                50               0                50               0                

0.024            -5.69044376113379 -80.2118773159152 -1.36761757121164 9.60578435160886 -96.8483260678687 99.344272847953  
                -1.36761757121163 9.60578435160886 -5.69108305960527 -80.5775748253471 -93.8562151327647 63.8769843442726 
                -96.8483260678686 99.3442728479538 -93.8562151327649 63.8769843442717 -4.1086019442234E-05 -1.28977866174597 
! Gamma         !               0.000214740763328461 0.503217672064538 6.44771551063829E-05 0.503067324277299 0.00199115138809 0.505042125955937 
! Port Impedance50               0                50               0                50               0                

0.025            -5.81818890243885 -81.6114081511268 -1.32138752062864 8.21631876190444 -96.4476959596122 97.9456845670706 
                -1.32138752062863 8.2163187619045  -5.81883025061262 -81.958535222674 -93.6052311024971 63.8020795292367 
                -96.4476959596121 97.9456845670699 -93.605231102497 63.802079529237  -3.83614444426312E-05 -1.34351276677452 
! Gamma         !               0.000219174098524299 0.524180553807114 6.58083730081664E-05 0.52402710518246 0.00203316144413447 0.526042971026592 
! Port Impedance50               0                50               0                50               0                

0.026            -5.93459736249778 -82.9560681735732 -1.28083729700864 6.88304474536627 -96.0666613231356 96.6032294697047 
                -1.28083729700864 6.88304474536629 -5.93524524641431 -83.2819603895662 -93.3621851252113 63.7293335108257 
                -96.0666613231353 96.6032294697055 -93.3621851252114 63.7293335108243 -3.57305291853012E-05 -1.39724724872454 
! Gamma         !               0.000223519873702743 0.545143347165486 6.71132990648875E-05 0.544986859547516 0.00207435096953491 0.5470429691913  
! Port Impedance50               0                50               0                50               0                

0.027            -6.04031817721883 -84.2508282423921 -1.24525519978251 5.60094874767914 -95.7034605572872 95.3119001764413 
                -1.24525519978251 5.60094874767918 -6.04097719119926 -84.5528928708551 -93.1265748280986 63.6568489923203 
                -95.7034605572869 95.3119001764386 -93.1265748280986 63.6568489923194 -3.33184593791653E-05 -1.45098242422144 
! Gamma         !               0.000227782905697381 0.566106057165207 6.8393379599421E-05 0.565946588881581 0.00211476470975826 0.568042168571715 
! Port Impedance50               0                50               0                50               0                

0.028            -6.13598261997844 -85.5000948240855 -1.21403856720905 4.36558063353917 -95.3565555969044 94.0672518088611 
                -1.21403856720905 4.36558063353913 -6.1366571835286 -85.7758160333789 -92.8979676864192 63.5831431694387 
                -95.3565555969045 94.0672518088599 -92.8979676864192 63.583143169439  -3.12132403255141E-05 -1.50471838092175 
! Gamma         !               0.000231967577554594 0.58706868842117 6.96499306935973E-05 0.586906294570457 0.00215444340241613 0.589040613354042 
! Port Impedance50               0                50               0                50               0                

0.029            -6.22220068699154 -86.7077821139812 -1.18667452148557 3.17298203461186 -95.0245965995312 92.8653305409878 
                -1.18667452148558 3.17298203461186 -6.22289482146664 -86.9547251762613 -92.6759869658153 63.5070730784943 
                -95.0245965995312 92.8653305409869 -92.6759869658155 63.5070730784949 -2.94730931199157E-05 -1.55845505667443 
! Gamma         !               0.000236077903616143 0.608031245180581 7.08841577285847E-05 0.607865977889532 0.00219342437871319 0.610038344203272 
! Port Impedance50               0                50               0                50               0                

0.03             -6.29955876013009 -87.8773743769454 -1.16272449321502 2.0196244040514  -94.7063931308988 91.7026117974347 
                -1.16272449321503 2.01962440405139 -6.30027592648734 -88.0931888495767 -92.4603008698234 63.4277737110763 
                -94.7063931308987 91.7026117974349 -92.4603008698233 63.4277737110774 -2.81324681104875E-05 -1.6121922956946 
! Gamma         !               0.000240117581152481 0.628993731357867 7.20971708867244E-05 0.628825640014264 0.00223174204067579 0.631035398599629 
! Port Impedance50               0                50               0                50               0                

0.031            -6.36861816323738 -89.0119798159299 -1.14181171529048 0.902355481200514 -94.4008905047627 90.5759468224868 
                -1.14181171529048 0.902355481200525 -6.36936115672378 -89.1944017261356 -92.2506141214323 63.3446068296677 
                -94.4008905047628 90.5759468224883 -92.2506141214323 63.3446068296686 -2.72069594760381E-05 -1.66592988828034 
! Gamma         !               0.000244090031266768 0.649956150563967 7.32899974317348E-05 0.64978528202897 0.00226942823909846 0.652031811120623 
! Port Impedance50               0                50               0                50               0                

0.032            -6.42991439469934 -90.1143771330199 -1.12361106321434 -0.18164698906471 -94.1071502382985 89.4825164774871 
                -1.12361106321435 -0.181646989064713 -6.43068528944164 -90.2612302184634 -92.046661399691 63.2571187092668 
                -94.1071502382984 89.4825164774883 -92.0466613996908 63.2571187092667 -2.6697336303255E-05 -1.71966759866629 
! Gamma         !               0.000247998431368905 0.670918506131707 7.44635914578203E-05 0.670744904934453 0.00230651257337904 0.673027613684963 
! Port Impedance50               0                50               0                50               0                

0.033            -6.48395686973027 -91.1870558042557 -1.10784075983766 -1.23491529657301 -93.8243338147076 88.4197912605736 
                -1.10784075983767 -1.23491529657297 -6.48475700500354 -91.2962518815996 -91.8482021951762 63.1650052976129 
                -93.8243338147076 88.4197912605727 -91.8482021951763 63.1650052976126 -2.65928563139384E-05 -1.77340518428127 
! Gamma         !               0.000251845741116586 0.69188080113839 7.56188416773665E-05 0.691704509654779 0.00234302263076824 0.694022835769302 
! Port Impedance50               0                50               0                50               0                

0.034            -6.53122904440705 -92.2322509548371 -1.09425556943979 -2.25972644663427 -93.5516891197541 87.3854966731833 
                -1.09425556943979 -2.25972644663428 -6.53205904422891 -92.3017895006944 -91.6550167546888 63.068083524691  
                -93.551689119754 87.3854966731817 -91.655016754689 63.0680835246909 -2.68739920650927E-05 -1.8271424087578 
! Gamma         !               0.00025563472335594 0.712843038426346 7.67565777074322E-05 0.712664097043454 0.00237898417923114 0.715017504605031 
! Port Impedance50               0                50               0                50               0                

0.035            -6.57218882290697 -93.2519735991915 -1.08264118766276 -3.25813224112325 -93.2885390528744 86.3775831770824 
                -1.08264118766276 -3.25813224112325 -6.57304864110283 -93.2799406344602 -91.4669028652314 62.9662676993863 
                -93.2885390528743 86.3775831770829 -91.4669028652314 62.9662676993866 -2.75146728095097E-05 -1.88087905039518 
! Gamma         !               0.000259367961276875 0.733805220621904 7.78775752198986E-05 0.733623667889116 0.00241442132520188 0.736011645359689 
! Port Impedance50               0                50               0                50               0                

0.036            -6.60726917190957 -94.2480369020986 -1.07280959642797 -4.23198541199995 -93.0342719166914 85.3942000921498 
                -1.07280959642797 -4.23198541199991 -6.60815815562821 -94.2326032726697 -91.283673287176 62.8595501086952 
                -93.0342719166912 85.394200092149  -91.2836732871762 62.8595501086944 -2.84841247871242E-05 -1.93461490731992 
! Gamma         !               0.000263047872729806 0.754767350153078 7.89825602395217E-05 0.754583222920851 0.0024493566450366 0.75700528130579 
! Port Impedance50               0                50               0                50               0                

0.037            -6.63687888339604 -95.2220790224845 -1.06459520127512 -5.18296236526377 -92.7883332687431 84.4336728785018 
                -1.06459520127512 -5.1829623652638 -6.63779584903454 -95.1614981678139 -91.1051536915738 62.7479850852616 
                -92.7883332687432 84.4336728785028 -91.1051536915738 62.7479850852618 -2.97483771486725E-05 -1.98834980025862 
! Gamma         !               0.000266676722429051 0.775729429266123 8.00722128076416E-05 0.775542762813163 0.00248381129691939 0.777998433978711 
! Port Impedance50               0                50               0                50               0                

0.038            -6.66140344038724 -96.1755830197167 -1.05785160604101 -6.11258301189425 -92.5502189816499 83.4944833275978 
                -1.05785160604102 -6.11258301189429 -6.66234675688737 -96.0681883167016 -90.9311809905823 62.631675935395  
                -92.5502189816502 83.4944833275982 -90.9311809905822 62.6316759353948 -3.1271488741416E-05 -2.04208357359892 
! Gamma         !               0.000270256632589259 0.796691460041045 8.11471701755727E-05 0.796502288190632 0.00251780511831447 0.798991123324548 
! Port Impedance50               0                50               0                50               0                

0.039            -6.68120595045589 -97.1098942320097 -1.05244890902007 -7.02222809237476 -92.3194693069081 82.5752522564513 
                -1.05244890902007 -7.02222809237476 -6.6821736258866 -96.9540959958423 -90.7616019757732 62.5107642251628 
                -92.3194693069079 82.5752522564512 -90.7616019757732 62.5107642251623 -3.30165412840704E-05 -2.09581609524042 
! Gamma         !               0.000273789592399293 0.817653444406124 8.22080296490825E-05 0.817461799632274 0.00255135671273675 0.819983367838433 
! Port Impedance50               0                50               0                50               0                

0.04             -6.69662811984018 -98.0262354765414 -1.04827142765029 -7.9131543416142 -92.0956637761625 81.6747243587938 
                -1.0482714276503 -7.91315434161423 -6.6976178880454 -97.8205176933358 -90.5962721986561 62.385421009953  
                -92.0956637761626 81.6747243587937 -90.5962721986559 62.3854210099537 -3.49464368857409E-05 -2.14954725560802 
! Gamma         !               0.000277277466627382 0.838615384151464 8.32553511721467E-05 0.838421297675614 0.0025844835285804 0.840975184693576 
! Port Impedance50               0                50               0                50               0                

0.041            -6.7079912472185 -98.9257203697558 -1.04521577680561 -8.78650779015766 -91.8784168044969 80.7917549177156 
                -1.04521577680561 -8.78650779015765 -6.70900065206456 -98.6686372283087 -90.4350550426803 62.2558396655177 
                -91.8784168044968 80.791754917715  -90.4350550426803 62.2558396655176 -3.70245318401304E-05 -2.20327696610523 
! Gamma         !               0.000280722003566523 0.859577280941582 8.42896597127053E-05 0.859380782820466 0.00261720193195297 0.861966589861213 
! Port Impedance50               0                50               0                50               0                

0.042            -6.71559722108043 -99.8093650228505 -1.04318924004624 -9.64333545429522 -91.6673738847338 79.9252981275269 
                -1.04318924004624 -9.64333545429519 -6.71662369648063 -99.499537305267 -90.2778209473854 62.1222300385925 
                -91.6673738847338 79.9252981275283 -90.2778209473854 62.1222300385921 -3.92151331978226E-05 -2.2570051572126 
! Gamma         !               0.000284124842465215 0.88053913632707 8.53114474939632E-05 0.880340255532432 0.00264952727486387 0.882957598221622 
! Port Impedance50               0                50               0                50               0                

0.043            -6.71972950845546 -100.678098330513 -1.04210838452324 -10.4845956309325 -91.4622082814053 79.0743968092866 
                -1.04210838452324 -10.4845956309325 -6.7207704528848 -100.314209713912 -90.1244467540948 61.9848136848096 
                -91.4622082814052 79.0743968092859 -90.1244467540948 61.9848136848087 -4.1483880959631E-05 -2.31073177638349 
! Gamma         !               0.000287487520541403 0.901500951755326 8.63211761005915E-05 0.901299716246128 0.00268147395967379 0.903948223666404 
! Port Impedance50               0                50               0                50               0                

0.044            -6.72065412577498 -101.53277103961 -1.04189787929042 -11.3111669819086 -91.2626181488411 78.2381733354844 
                -1.04189787929042 -11.3111669819086 -6.72170697042312 -101.113564353916 -89.9748151492826 61.8438200024271 