! Touchstone file exported from HFSS 2018.2.0
!        File:           E:/Julien/ICRH/WEST Antenna/Complete Numerical Antenna Model/WEST_ICRH_Capacitor.aedt
!        Generated:      5:40:40  janv. 09, 2019
!        Design:         WEST_ICRH_Voltage_Probes_depth_m5mm_optimetrics_silver_Part2
!        Project:        WEST_ICRH_Capacitor
!        Setup:          Setup1
!        Solution:       Sweep
!
! Variables:
!        D_cylinders = 90mm
!        D_cylinders_step = 110.908mm
!        d_half_wave = 3mm
!        d_mesh = 7mm
!        deemb1 = 150mm
!        deemb2 = 150mm
!        deemb3 = 100mm
!        depth = -5mm
!        diameter_bellows_fixed_center_1 = 76mm
!        diameter_bellows_fixed_center_2 = 72mm
!        diameter_bellows_fixed_left_1 = 76mm
!        diameter_bellows_fixed_left_2 = 71mm
!        diameter_big_wave = 74.925mm
!        diameter_cylinder_1 = 140mm
!        diameter_cylinder_2 = 110mm
!        diameter_cylinder_3 = 80mm
!        diameter_cylinder_4 = 50mm
!        diameter_cylinder_5 = 19.985mm
!        diameter_cylinders_fixed = 143mm
!        diameter_small_wave = 51mm
!        diametre_coax_external = 216mm
!        diametre_probe_cavity = 13mm
!        diametre_probe_external = 7mm
!        diametre_probe_head = 7mm
!        diametre_probe_internal = 3mm
!        length_bellows_fixed_center_1 = 4.1mm
!        length_bellows_fixed_center_2 = 6.042mm
!        length_bellows_fixed_left_1 = 4.1mm
!        length_bellows_fixed_left_2 = 13mm
!        length_cylinders = 45.5mm
!        length_cylinders_fixed = 7mm
!        length_probe = 114mm
!        length_probe_cavity = 23mm
!        length_probe_head = 9.5mm
!        parois_cavity_probe = 1mm
!        parois_probe = 1mm
!        thickness_cylinder_1 = 1.5mm
!        thickness_cylinder_2 = 1.5mm
!        thickness_cylinder_3 = 1.5mm
!        thickness_cylinder_4 = 1.5mm
!        top_probe = 14mm
!        y0_bellows1 = 223.3mm
!
# GHZ S DB R 50.000000
! Modal data exported
! Port[1] = 1:1
! Port[2] = 2:1
! Port[3] = 3:1
0.001            1.54808429073308 -4.2600013999836 -25.8290260127526 85.0820676867746 -92.5804318578013 156.318294999079 
                -25.8290260127535 85.0820676867855 0.00770711017637122 -3.56538840425787 -106.867970901894 163.081011905744 
                -92.5804318578057 156.318294999134 -106.867970901921 163.081011905445 0.204718293582005 1.6608730938495  
! Gamma         !               4.37891526994592E-05 0.0210023553792706 1.31631185036368E-05 0.0209716403740747 0.000388530368510571 0.0213644772211705 
! Port Impedance50               0                50               0                50               0                

0.002            0.104566361376012 -7.14300974815892 -20.6249308928885 82.7715497292991 -111.668952224411 60.8701637250201 
                -20.6249308928897 82.7715497293046 -0.0297003874829385 -7.11469328547034 -110.75481861086 96.6163400529654 
                -111.668952224473 60.8701637233887 -110.754818610855 96.6163400529029 0.0361821791966005 0.47940589997169 
! Gamma         !               6.20795008884545E-05 0.0419799956677935 1.86583282242401E-05 0.0419358561719316 0.000556329347016561 0.0425044377992531 
! Port Impedance50               0                50               0                50               0                

0.003            -0.027942368178773 -10.6615011813124 -17.2397442778411 79.3242080187251 -124.139690314249 80.0342404152788 
                -17.2397442778419 79.3242080187262 -0.0794302190822765 -10.6289662264471 -107.697622149355 87.2442356418877 
                -124.13969031434 80.0342404142262 -107.697622149352 87.2442356418697 0.0118750062112677 0.0501221865480958 
! Gamma         !               7.64712724525312E-05 0.0629518149202587 2.29819049393669E-05 0.062898322543913 0.000689566845622129 0.0635904936570044 
! Port Impedance50               0                50               0                50               0                

0.004            -0.116369939369965 -14.1397563904789 -14.846947797535 75.857993221111  -126.683641730992 134.09502628739  
                -14.8469477975354 75.8579932211102 -0.14349575483026 -14.095208010502 -105.347407077926 83.8658497870497 
                -126.683641731057 134.095026287322 -105.347407077926 83.8658497870436 0.00551147118747094 -0.124655818890942 
! Gamma         !               8.80649641248894E-05 0.0839216215685037 2.64648080235886E-05 0.0838601845178633 0.000797428620517931 0.0846573876917099 
! Port Impedance50               0                50               0                50               0                

0.005            -0.20566125348382 -17.5577083699797 -13.0221769493233 72.4469933689665 -122.792178116479 153.207937901198 
                -13.0221769493235 72.4469933689653 -0.222162366651037 -17.5001356955424 -103.516720105806 81.6505467306238 
                -122.792178116507 153.207937901168 -103.516720105806 81.6505467306268 0.00299450905611053 -0.225263694168317 
! Gamma         !               9.82112457466763E-05 0.10489034513007 2.95129586217654E-05 0.104821721177418 0.000892074780126817 0.105713936718299 
! Port Impedance50               0                50               0                50               0                

0.006            -0.303710622355667 -20.9026247415669 -11.5669596414982 69.1093019459525 -119.511424446382 155.687765249291 
                -11.5669596414984 69.1093019459517 -0.314549665757404 -20.8319439125354 -102.036308049899 79.8169621210823 
                -119.51142444639 155.687765249286 -102.036308049899 79.8169621210804 0.00176191194075001 -0.299965961017267 
! Gamma         !               0.000107466462016503 0.125858197996611 3.22934620265103E-05 0.125782996251587 0.000978584354059954 0.126762215654142 
! Port Impedance50               0                50               0                50               0                

0.007            -0.411853616642041 -24.164454953928 -10.3725752406604 65.8551039253675 -116.881116400472 154.329703242576 
                -10.3725752406605 65.8551039253667 -0.419283545585174 -24.0807226466629 -100.80509318797 78.1689331410745 
                -116.881116400481 154.329703242542 -100.80509318797 78.1689331410761 0.00108240861276091 -0.364124505901998 
! Gamma         !               0.000116048564091653 0.146825309639642 3.48717620057433E-05 0.146744048625041 0.0010589454898237 0.147803463046052 
! Port Impedance50               0                50               0                50               0                

0.008            -0.529553841218971 -27.3353693066128 -9.37272323385903 62.6919816559387 -114.682106755144 151.893931202965 
                -9.37272323385905 62.6919816559383 -0.534764171526205 -27.2385863072287 -99.7597042036209 76.6443587539561 
                -114.682106755144 151.893931202973 -99.7597042036209 76.6443587539544 0.000679770066954508 -0.423471934320071 
! Gamma         !               0.000124069713565589 0.167791804291473 3.72815395101251E-05 0.16770491562605 0.00113417181328174 0.168838849363224 
! Port Impedance50               0                50               0                50               0                

0.009            -0.65560691870025 -30.4096127921327 -8.5237268768827 59.6255702185961 -112.793079257386 149.137652141038 
                -8.5237268768827 59.6255702185959 -0.659299875103636 -30.299658554503 -98.8579039587013 75.2204703331951 
                -112.793079257385 149.13765214102  -98.8579039587015 75.2204703331934 0.000429746514654979 -0.480427801157077 
! Gamma         !               0.000131610914496124 0.188757792155562 3.9547125959373E-05 0.188665630368911 0.00120499243988394 0.189869411470158 
! Port Impedance50               0                50               0                50               0                

0.01             -0.78856273103041 -33.3833490815395 -7.79509270794927 56.6596944238152 -111.141588904431 146.313514605748 
                -7.79509270794926 56.6596944238148 -0.791189960206467 -33.2599618890222 -98.0700562128449 73.8876498003717 
                -111.141588904434 146.313514605746 -98.0700562128447 73.8876498003752 0.000269595612833118 -0.53611490244539 
! Gamma         !               0.000138740246856343 0.209723361912034 4.16889742789057E-05 0.209626219499142 0.0012720220733083 0.210895985954142 
! Port Impedance50               0                50               0                50               0                

0.011            -0.926910583076874 -36.2544645934892 -7.16455461484854 53.7965110924805 -109.679611871359 143.517687462404 
                -7.16455461484852 53.7965110924803 -0.928781879677759 -36.1172434319761 -97.3744921590916 72.6408260088565 
                -109.67961187136 143.517687462392 -97.3744921590918 72.6408260088554 0.000164930436798141 -0.591094357565191 
! Gamma         !               0.000145515785084299 0.230688581193219 4.37245324770248E-05 0.230586703336798 0.00133578766932369 0.231919213126631 
! Port Impedance50               0                50               0                50               0                

0.012            -1.06917379975819 -39.0223446039184 -6.61527235946101 51.036698872007  -108.372905752459 140.789980866525 
                -6.61527235946101 51.0366988720068 -1.0705115335986 -38.8707624729015 -96.7548421725552 71.4763402827651 
                -108.372905752459 140.789980866518 -96.7548421725553 71.4763402827641 9.57153729503042E-05 -0.64566354100358 
! Gamma         !               0.000151985960655281 0.251653500682439 4.56683514271924E-05 0.251547097108867 0.00139673061995081 0.25293957447357 
! Port Impedance50               0                50               0                50               0                

0.013            -1.21396208403835 -41.6876382565197 -6.13415086154557 48.3796754569474 -107.195831471217 138.14736617937  
                -6.13415086154555 48.3796754569473 -1.21493057297043 -41.5210609401047 -96.1984157972739 70.3907638494815 
                -107.195831471217 138.14736617936  -96.1984157972739 70.39076384948   4.97106804374413E-05 -0.699987601914317 
! Gamma         !               0.000158190301101666 0.272618158676184 4.7532306654605E-05 0.272507412320534 0.00145521239600658 0.273957434810997 
! Port Impedance50               0                50               0                50               0                

0.014            -1.36000061724338 -44.252026934784 -5.71078052922387 45.8238208689615 -106.128527023696 135.596584650831 
                -5.71078052922388 45.8238208689615 -1.36072317987729 -44.0697334122475 -95.6951714546827 69.3804813392706 
                -106.128527023696 135.59658465084  -95.6951714546825 69.3804813392705 1.91560757485953E-05 -0.754161739996014 
! Gamma         !               0.000164160704221527 0.293582584836684 4.93259812137557E-05 0.293467657882928 0.00151152542081305 0.29497307723371 
! Port Impedance50               0                50               0                50               0                

0.015            -1.50614475387043 -46.7180066149049 -5.33674003448939 43.3666917389425 -105.155218360798 133.139377915443 
                -5.33674003448938 43.3666917389424 -1.50671436869398 -46.5192087470616 -95.2370338426558 68.4415914923806 
                -105.155218360798 133.139377915441 -95.2370338426557 68.4415914923807 -1.01351935096078E-06 -0.808242472106044 
! Gamma         !               0.000169922896739064 0.314546802893971 5.10571040365941E-05 0.314427840925038 0.0015659059568804 0.315986728447066 
! Port Impedance50               0                50               0                50               0                

0.016            -1.65138519169151 -49.0886910486576 -5.00512010308992 41.0052172929691 -104.263138406477 130.774859967779 
                -5.00512010308992 41.005217292969  -1.65187165797644 -48.8725512248443 -94.8174249559751 67.5699391248171 
                -104.263138406476 130.774859967777 -94.8174249559753 67.5699391248167 -1.4178023281403E-05 -0.862264126855809 
! Gamma         !               0.000175497800059013 0.33551083245476 5.2731960343713E-05 0.335387967337179 0.00161854637071121 0.3369985758272  
! Port Impedance50               0                50               0                50               0                

0.017            -1.79484671059973 -51.3676394150357 -4.71018734153564 38.735872102211  -103.441798393804 128.500688800264 
                -4.71018734153565 38.7358721022109 -1.79530177956542 -51.1332855737414 -94.4309312867205 66.7611961191293 
                -103.441798393804 128.500688800266 -94.4309312867206 66.7611961191309 -2.26293882736637E-05 -0.916247920599532 
! Gamma         !               0.000180902672748249 0.356474690164617 5.43557349385193E-05 0.356348042120135 0.00166960548990707 0.358008778444086 
! Port Impedance50               0                50               0                50               0                

0.018            -1.93578262940231 -53.558709581059 -4.44713989434214 36.5548237718284 -102.682476444936 126.313694912304 
                -4.44713989434215 36.5548237718284 -1.93624387539279 -53.3052474896098 -94.0730608054157 66.010953768772  
                -102.682476444936 126.313694912305 -94.0730608054157 66.0109537687734 -2.79383455702819E-05 -0.970207133546931 
! Gamma         !               0.000186152001916765 0.377438390441745 5.59327800317295E-05 0.377308069605577 0.00171921673243718 0.379017474058324 
! Port Impedance50               0                50               0                50               0                

0.019            -2.07356654340579 -55.6659363230815 -4.21192523817382 34.4580558603128 -101.977846858292 124.210245190624 
                -4.21192523817384 34.4580558603127 -2.07406039318993 -55.3924592814487 -93.7400610007899 65.3148093526678 
                -101.977846858292 124.210245190624 -93.7400610007899 65.3148093526688 -3.11872550775646E-05 -1.02415015241116 
! Gamma         !               0.000191258167944385 0.398401945943314 5.74668149520302E-05 0.398268053596137 0.00176749419222715 0.400024783587575 
! Port Impedance50               0                50               0                50               0                

0.02             -2.20768249321825 -57.6934326964896 -4.00110125292921 32.4414676589678 -101.321704221731 122.18646769473  
                -4.00110125292922 32.4414676589678 -2.2082266510767 -57.3990289741587 -93.4287796596167 64.6684398026315 
                -101.321704221732 122.186467694727 -93.4287796596169 64.668439802632  -3.31223025947648E-05 -1.07808230456376 
! Gamma         !               0.000196231926038065 0.419365367871751 5.89610708164318E-05 0.419227997457403 0.00181453705788022 0.421030814049514 
! Port Impedance50               0                50               0                50               0                

0.021            -2.33771440391614 -59.6453120840334 -3.81172824588106 30.5009532129437 -100.708753564995 120.238397503722 
                -3.81172824588107 30.5009532129436 -2.33831981610539 -59.3290704532119 -93.136556371611 64.0676603194775 
                -100.708753564996 120.238397503717 -93.1365563716109 64.0676603194802 -3.42554946568706E-05 -1.13200698656609 
! Gamma         !               0.000201082749501912 0.440328666188257 6.04183936505246E-05 0.440187904182064 0.00186043276548772 0.442035660614891 
! Port Impedance50               0                50               0                50               0                

0.022            -2.46333539241257 -61.5256281747902 -3.64128365770832 28.6324622941805 -100.134447795921 118.362074366471 
                -3.64128365770834 28.6324622941804 -2.46400784466112 -61.18664190269  -92.8611366654368 63.5084682784268 
                -100.134447795922 118.362074366473 -92.8611366654366 63.5084682784284 -3.49344551989549E-05 -1.18592636977858 
! Gamma         !               0.000205819073378316 0.461291849773237 6.18413175764377E-05 0.461147776438093 0.00190525923582069 0.463039408148295 
! Port Impedance50               0                50               0                50               0                

0.023            -2.58429735371955 -63.3383301117603 -3.48759375630023 26.8320460776514 -99.5948598036539 116.553608986488 
                -3.48759375630023 26.8320460776515 -2.58503876814546 -62.9756997436498 -92.6006031815704 62.9870739304091 
                -99.5948598036537 116.553608986485 -92.6006031815705 62.9870739304097 -3.53910056797684E-05 -1.23984184679411 
! Gamma         !               0.000210448468728877 0.482254926556065 6.32321171639451E-05 0.482107616607732 0.0019490864725176 0.484042132450678 
! Port Impedance50               0                50               0                50               0                

0.024            -2.70042109361825 -65.0872302011402 -3.34877830247715 25.0958901312336 -99.0865805034638 114.809227841781 
                -3.34877830247717 25.0958901312336 -2.70123057582424 -64.7000654205373 -92.3533199192397 62.4999198616007 
                -99.0865805034635 114.809227841782 -92.3533199192395 62.4999198616008 -3.57754253228814E-05 -1.29375431609152 
! Gamma         !               0.000214977769839772 0.503217903626042 6.45928456404049E-05 0.503067426820832 0.00199197772609681 0.50504390131867 
! Port Impedance50               0                50               0                50               0                

0.025            -2.81158716797453 -66.7759818272866 -3.22320529019946 23.4203370853064 -98.6066366406279 113.125302782802 
                -3.22320529019946 23.4203370853063 -2.81246184539411 -66.3634026302538 -92.1178866843095 62.0436912469582 
                -98.6066366406284 113.125302782801 -92.1178866843096 62.0436912469596 -3.6180843110097E-05 -1.34766436420534 
! Gamma         !               0.000219413170032025 0.524180787330545 6.59253636704946E-05 0.524027208984336 0.00203399036850997 0.526044775479118 
! Port Impedance50               0                50               0                50               0                

0.026            -2.91772751059979 -68.4080655117364 -3.10945362612488 21.8019010565716 -98.1524238773159 111.498369593436 
                -3.1094536261249 21.8019010565715 -2.91866319653339 -67.9692028847276 -91.8931016095132 61.615318809172  
                -98.1524238773159 111.498369593436 -91.8931016095131 61.6153188091724 -3.66607091321735E-05 -1.40157238224721 
! Gamma         !               0.000223760296711898 0.545143583363143 6.72313619006569E-05 0.544986964808755 0.00207517657666992 0.547044809426696 
! Port Impedance50               0                50               0                50               0                

0.027            -3.01881787607496 -69.9867813570336 -3.00628214445688 20.2372755987822 -97.7216518593718 109.925138461437 
                -3.00628214445689 20.2372755987822 -3.0198095888126 -69.5207776052407 -91.6779301386623 61.2119761775007 
                -97.7216518593718 109.925138461436 -91.6779301386624 61.2119761775    -3.72413426627182E-05 -1.45547864005517 
! Gamma         !               0.000228024272645371 0.566106296842922 6.85123793661211E-05 0.565946695832007 0.0021155838897037 0.568044052177278 
! Port Impedance50               0                50               0                50               0                

0.028            -3.11487108610903 -71.515246404484 -2.91260373096184 18.7233366641341 -97.3122987836797 108.402498506503 
                -2.91260373096185 18.7233366641341 -3.11591344837813 -71.0212552414935 -91.4714792381029 60.8310730919157 
                -97.3122987836794 108.402498506504 -91.4714792381029 60.8310730919158 -3.79309387938275E-05 -1.50938333288764 
! Gamma         !               0.000232209767907064 0.587068932385607 6.9769819097177E-05 0.58690640344078 0.0021552556812088 0.58904254794316 
! Port Impedance50               0                50               0                50               0                

0.029            -3.2059310434497 -72.9963956970464 -2.82746360448871 17.257141795888  -96.9225735767901 106.92751796935  
                -2.82746360448872 17.257141795888  -3.20701858382419 -72.4735821770058 -91.2729758697411 60.4702456502899 
                -96.9225735767901 106.927517969353 -91.2729758697411 60.4702456502894 -3.87260070880157E-05 -1.56328661032558 
! Gamma         !               0.000236321045258838 0.608031494166849 7.10049617521598E-05 0.607866088889547 0.00219423157203523 0.610040336733998 
! Port Impedance50               0                50               0                50               0                

0.03             -3.29206746258645 -74.4329860687619 -2.75002100744708 15.8359265412759 -96.5508842257521 105.497441274449 
                -2.75002100744709 15.8359265412758 -3.29319483730179 -73.880526418783 -91.0817489616735 60.127344567794  
                -96.5508842257525 105.497441274449 -91.0817489616734 60.127344567796  -3.96159381638211E-05 -1.61718859369437 
! Gamma         !               0.000240362000618541 0.628993985978047 7.22189777757583E-05 0.628825753317345 0.00223254779891438 0.631037454887263 
! Port Impedance50               0                50               0                50               0                

0.031            -3.37337125871518 -75.8276018792271 -2.67953370967448 14.4570988752889 -96.1958111209079 104.109683889559 
                -2.67953370967449 14.4570988752888 -3.37453340949331 -75.2446832716603 -90.8972142652522 59.8004222162468 
                -96.1958111209081 104.10968388956  -90.8972142652522 59.8004222162474 -4.0586202319767E-05 -1.67108938614728 
! Gamma         !               0.000244336199598194 0.649956411275196 7.34129383766805E-05 0.649785397762442 0.0022702375478984 0.652033935532584 
! Port Impedance50               0                50               0                50               0                

0.032            -3.44995053354059 -77.1826620770489 -2.61534484715806 13.1182322592282 -95.8560845102073 102.761825685508 
                -2.61534484715806 13.1182322592282 -3.4511427945138 -76.5684823677056 -90.7188616051058 59.48771903902   
                -95.8560845102076 102.761825685508 -90.7188616051058 59.4877190390201 -4.16205484404837E-05 -1.72498907813238 
! Gamma         !               0.000248246910685251 0.670918773221265 7.45878254968783E-05 0.670745023175078 0.00230733125778561 0.673029808995099 
! Port Impedance50               0                50               0                50               0                

0.033            -3.52192709687676 -78.5004281128372 -2.55687170787346 11.8170578200987 -95.5305653473457 101.451603330542 
                -2.55687170787347 11.8170578200986 -3.523145261493  -77.8541955613771 -90.5462441205559 59.1876497938781 
                -95.530565347346 101.451603330542 -90.5462441205556 59.1876497938791 -4.27024745749916E-05 -1.77888775002897 
! Gamma         !               0.000252097135412024 0.691881074722736 7.5744540875932E-05 0.691704630428436 0.00234385689657703 0.694025103143476 
! Port Impedance50               0                50               0                50               0                

0.034            -3.58943346549286 -79.7830123336199 -2.50359614831342 10.5514560245554 -95.2182289569451 100.176902122738 
                -2.50359614831343 10.5514560245554 -3.59067382237027 -79.1039453153681 -90.3789691695785 58.8987899588002 
                -95.2182289569451 100.176902122738 -90.3789691695786 58.8987899587999 -4.3816170706318E-05 -1.83278547311747 
! Gamma         !               0.000255889635739475 0.71284331846091 7.68839142784927E-05 0.712664220328048 0.00237984021290706 0.715019843688522 
! Port Impedance50               0                50               0                50               0                

0.035            -3.65261028439068 -81.0323865802115 -2.4550563808806 9.31944813054754 -94.9181510498684 98.9357475621007 
                -2.4550563808806 9.31944813054753 -3.6538696294475 -80.3197132939698 -90.2166906245727 58.6198625416878 
                -94.9181510498686 98.9357475621008 -90.2166906245727 58.6198625416877 -4.49470826089233E-05 -1.88668230963376 
! Gamma         !               0.000259626958827284 0.733805506918628 7.80067109364061E-05 0.733623793619828 0.00241530496389681 0.73601405443826 
! Port Impedance50               0                50               0                50               0                

0.036            -3.7116041201012 -82.2503907805226 -2.41083991765943 8.11918762755898 -94.6294957082027 97.7262968849724 
                -2.41083991765943 8.11918762755901 -3.71287975089525 -81.5033489539105 -90.0591023360387 58.3497254603015 
                -94.6294957082026 97.726296884973  -90.0591023360387 58.349725460301  -4.60822071990826E-05 -1.94057831238248 
! Gamma         !               0.000263311459343338 0.754767642403005 7.91136382515161E-05 0.754583350996897 0.00245027312071879 0.757007757515195 
! Port Impedance50               0                50               0                50               0                

0.037            -3.76656558024138 -83.4387413881937 -2.37057749268727 6.94895181927683 -94.3515050280514 96.5468307221253 
                -2.37057749268727 6.94895181927693 -3.76785527728313 -82.6565779802562 -89.9059325783531 58.0873596005132 
                -94.3515050280514 96.5468307221251 -89.9059325783532 58.0873596005129 -4.72102011292296E-05 -1.99447352420205 
! Gamma         !               0.000266945319464554 0.77572972706473 8.02053518047841E-05 0.775542893105381 0.00248476505316677 0.778000973541034 
! Port Impedance50               0                50               0                50               0                

0.038            -3.81764771820788 -84.5990395600343 -2.33393781459834 5.80713365784983 -94.0834901631679 95.3957449946149 
                -2.33393781459834 5.80713365784985 -3.81894971704095 -83.7810104599106 -89.7569393229199 57.8318576163344 
                -94.0834901631679 95.3957449946144 -89.7569393229199 57.8318576163338 -4.83213630308607E-05 -2.04836797745297 
! Gamma         !               0.000270530566726368 0.796691762914459 8.12824607190016E-05 0.796502420549339 0.00251879969459261 0.79899372179372 
! Port Impedance50               0                50               0                50               0                

0.039            -3.86500468633692 -85.7327789999058 -2.30062302584035 4.69223390426425 -93.8248235566323 94.2715431252652 
                -2.30062302584035 4.69223390426428 -3.86631764337837 -84.8781487199985 -89.6119062095422 57.5824135013439 
                -93.824823556632 94.2715431252659 -89.6119062095422 57.582413501343  -4.94075336956926E-05 -2.10226169362244 
! Gamma         !               0.000274069089884465 0.817653751836757 8.23455324242475E-05 0.817461933894949 0.00255239468864592 0.819986020341078 
! Port Impedance50               0                50               0                50               0                

0.04             -3.90879060502336 -86.8413534228696 -2.27036476465173 3.60285366278017 -93.5749321835907 93.1728286160036 
                -2.27036476465172 3.60285366278021 -3.91011355950253 -85.9493947849756 -89.4706391079494 57.338312936132  
                -93.5749321835906 93.1728286160031 -89.4706391079493 57.338312936132  -5.04619463583436E-05 -2.15615468308831 
! Gamma         !               0.000277562652956296 0.838615695601978 8.3395096876438E-05 0.838421433674079 0.00258556651930544 0.840977886154856 
! Port Impedance50               0                50               0                50               0                

0.041            -3.9491586191182 -87.9260636132773 -2.24292074248588 2.53768731718212 -93.3332916572488 92.0982980204072 
                -2.24292074248588 2.53768731718213 -3.95049095292371 -86.9960574263833 -89.332963178867 57.0989243982396 
                -93.3332916572488 92.0982980204067 -89.3329631788671 57.0989243982392 -5.14790501791237E-05 -2.21004694505406 
! Gamma         !               0.000281012907610538 0.859577595876441 8.44316502795012E-05 0.859380920387337 0.00261833062570949 0.861969335208443 
! Port Impedance50               0                50               0                50               0                

0.042            -3.98626011639506 -88.9881240653401 -2.21807176323947 1.49551588146932 -93.0994210741913 91.0467343253211 
                -2.21807176323947 1.49551588146931 -3.98760151321259 -88.0193587941391 -89.1987203585271 56.8636910083374 
                -93.0994210741913 91.0467343253214 -89.198720358527 56.8636910083373 -5.24543234025213E-05 -2.26393846764797 
! Gamma         !               0.000284421404069747 0.880539454231182 8.54556583608303E-05 0.880340394506712 0.00265070150327817 0.882960382561031 
! Port Impedance50               0                50               0                50               0                

0.043            -4.02024408598934 -90.0286692056429 -2.19561912200914 0.475200766446334 -92.8728784947727 90.0170007438715 
                -2.19561912200914 0.475200766446343 -4.02159449077351 -89.020440629229 -89.0677672025844 56.6321230779081 
                -92.8728784947728 90.0170007438718 -89.0677672025845 56.6321230779075 -5.33840872262349E-05 -2.31782922816898 
! Gamma         !               0.000287789600685399 0.901501272149548 8.64675592478606E-05 0.901299856477846 0.00268269279257335 0.903951042430599 
! Port Impedance50               0                50               0                50               0                

0.044            -4.05125659748988 -91.0487592049746 -2.17538233058376 -0.524322044406131 -92.6532569705587 89.0080349139731 
                -2.17538233058376 -0.524322044406079 -4.05261617704364 -90.0003700655526 -88.9399730354926 56.4037913183033 