! Touchstone file exported from HFSS 2018.2.0
!        File:           E:/Julien/ICRH/WEST Antenna/Complete Numerical Antenna Model/WEST_ICRH_Capacitor.aedt
!        Generated:      2:57:36  janv. 09, 2019
!        Design:         WEST_ICRH_Voltage_Probes_depth_m5mm_optimetrics_silver_Part2
!        Project:        WEST_ICRH_Capacitor
!        Setup:          Setup1
!        Solution:       Sweep
!
! Variables:
!        D_cylinders = 77mm
!        D_cylinders_step = 110.908mm
!        d_half_wave = 2.56666666666667mm
!        d_mesh = 7mm
!        deemb1 = 150mm
!        deemb2 = 150mm
!        deemb3 = 100mm
!        depth = -5mm
!        diameter_bellows_fixed_center_1 = 76mm
!        diameter_bellows_fixed_center_2 = 72mm
!        diameter_bellows_fixed_left_1 = 76mm
!        diameter_bellows_fixed_left_2 = 71mm
!        diameter_big_wave = 74.925mm
!        diameter_cylinder_1 = 140mm
!        diameter_cylinder_2 = 110mm
!        diameter_cylinder_3 = 80mm
!        diameter_cylinder_4 = 50mm
!        diameter_cylinder_5 = 19.985mm
!        diameter_cylinders_fixed = 143mm
!        diameter_small_wave = 51mm
!        diametre_coax_external = 216mm
!        diametre_probe_cavity = 13mm
!        diametre_probe_external = 7mm
!        diametre_probe_head = 7mm
!        diametre_probe_internal = 3mm
!        length_bellows_fixed_center_1 = 4.1mm
!        length_bellows_fixed_center_2 = 6.042mm
!        length_bellows_fixed_left_1 = 4.1mm
!        length_bellows_fixed_left_2 = 13mm
!        length_cylinders = 45.5mm
!        length_cylinders_fixed = 7mm
!        length_probe = 114mm
!        length_probe_cavity = 23mm
!        length_probe_head = 9.5mm
!        parois_cavity_probe = 1mm
!        parois_probe = 1mm
!        thickness_cylinder_1 = 1.5mm
!        thickness_cylinder_2 = 1.5mm
!        thickness_cylinder_3 = 1.5mm
!        thickness_cylinder_4 = 1.5mm
!        top_probe = 14mm
!        y0_bellows1 = 223.3mm
!
# GHZ S DB R 50.000000
! Modal data exported
! Port[1] = 1:1
! Port[2] = 2:1
! Port[3] = 3:1
0.001            1.82198927297918 -2.41063254506079 -33.9611401248261 86.9002562268315 -96.6891759846787 92.419678356538  
                -33.9611401248292 86.9002562268394 0.0207189515175078 -1.96141028617764 -108.233608270921 141.336495415055 
                -96.6891759847153 92.4196783560102 -108.233608270922 141.336495415026 0.199562659694652 2.04147461497067 
! Gamma         !               4.3687272682265E-05 0.0210022502549584 1.30953257588647E-05 0.020971577582107 0.000388391200474105 0.0213640410067518 
! Port Impedance50               0                50               0                50               0                

0.002            0.285064678390882 -4.00868503445631 -28.6917849796267 85.8785657643219 -112.084029561166 89.4752984351939 
                -28.6917849796263 85.8785657643096 -0.00174449893240293 -3.90928649885342 -110.541870429274 96.2813368774275 
                -112.084029561197 89.4752984350088 -110.541870429275 96.2813368774282 0.0460409080639819 0.321813143149849 
! Gamma         !               6.20234897570726E-05 0.0419789821598935 1.85910785382354E-05 0.0419355077359536 0.000557042548351758 0.0424958522756969 
! Port Impedance50               0                50               0                50               0                

0.003            0.0981560184703117 -5.96066955422577 -25.2827477454285 84.0122021905461 -121.994052800897 96.6291973787535 
                -25.2827477454279 84.0122021905443 -0.0118680325879367 -5.85765918643214 -107.333842110873 89.1064231399746 
                -121.994052800929 96.6291973787122 -107.33384211087 89.1064231399774 0.0148141466646335 0.00340343973744772 
! Gamma         !               7.58243020683249E-05 0.0629511916099946 2.27274329107448E-05 0.0628980821981705 0.000684951560227089 0.0635853783579609 
! Port Impedance50               0                50               0                50               0                

0.004            0.0308338744184347 -7.92449576833813 -22.8349253780483 82.0752621556885 -127.888960385079 118.914991718573 
                -22.8349253780481 82.0752621556888 -0.0227611845900069 -7.80106804457338 -104.910209627387 86.7492833629872 
                -127.888960385106 118.914991718512 -104.910209627386 86.7492833630076 0.00612233760412443 -0.136659704514547 
! Gamma         !               8.74894329023213E-05 0.083921399444212 2.62237759820965E-05 0.0838600566871112 0.000793499614290755 0.0846560050866663 
! Port Impedance50               0                50               0                50               0                

0.005            -0.0068753372801905 -9.88524042445136 -20.9354768205783 80.1337154330808 -128.448350611377 145.324534184403 
                -20.9354768205783 80.1337154330813 -0.035814665019243 -9.73736807363844 -103.011633892074 85.3219259290774 
                -128.448350611398 145.324534184391 -103.011633892074 85.3219259290842 0.00302370822024663 -0.226979885239636 
! Gamma         !               9.78284244418624E-05 0.104890206874944 2.93226735798444E-05 0.104821611386582 0.000889998357276564 0.105713397582284 
! Port Impedance50               0                50               0                50               0                

0.006            -0.0349087459111846 -11.8386071231324 -19.3896966516332 78.1975796249529 -126.345876621624 157.770869784462 
                -19.3896966516333 78.1975796249539 -0.0512993783716435 -11.6647257536422 -101.45899393349 84.167319563988  
                -126.345876621618 157.770869784474 -101.45899393349 84.167319563982  0.00169100428933605 -0.298652915680977 
! Gamma         !               0.000107181119173937 0.12585799982902 3.21259581366302E-05 0.12578286199252 0.000977500839443716 0.126761170859586 
! Port Impedance50               0                50               0                50               0                

0.007            -0.0597697206217846 -13.7821149240129 -18.0912115414581 76.2702979821661 -123.973887512669 161.542801495225 
                -18.0912115414582 76.2702979821664 -0.0692411924679658 -13.5814310178926 -100.149514337659 83.1166177693371 
                -123.973887512667 161.542801495225 -100.149514337659 83.1166177693413 0.00102492942310147 -0.36207038996685 
! Gamma         !               0.000115773445251351 0.146825038517507 3.47013424796671E-05 0.14674388651018 0.00105804144183869 0.147801770594687 
! Port Impedance50               0                50               0                50               0                

0.008            -0.0840694003044282 -15.7138542461997 -16.9757258978284 74.3541283083681 -121.79484087215 161.979281201306 
                -16.9757258978284 74.3541283083682 -0.0895838518654898 -15.4858705801483 -99.0201507704412 82.1148030477069 
                -121.794840872158 161.979281201291 -99.0201507704414 82.1148030477086 0.000650304062249609 -0.421393588269023 
! Gamma         !               0.000123767954533417 0.167791487979269 3.70975475723796E-05 0.167704734410808 0.00113309227478817 0.168836756124631 
! Port Impedance50               0                50               0                50               0                

0.009            -0.1089890187359 -17.6321806302548 -16.0014395325824 72.450937996424  -119.841624587719 161.124683914879 
                -16.0014395325824 72.4509379964242 -0.112233707457071 -17.3765249665205 -98.0296512319065 81.1412137221052 
                -119.841624587719 161.124683914876 -98.0296512319066 81.1412137221061 0.000420291926765254 -0.478511765321763 
! Gamma         !               0.000131279006196638 0.18875745559075 3.9348849325004E-05 0.188665437879804 0.00120369332323796 0.189867145936194 
! Port Impedance50               0                50               0                50               0                

0.01             -0.135092304392217 -19.5356124933264 -15.1396415655055 70.5623734854741 -118.087655482693 159.735641389898 
                -15.1396415655055 70.5623734854743 -0.137075757823809 -19.2519710181215 -97.1495845357187 80.1874783924008 
                -118.08765548269 159.735641389901 -97.1495845357188 80.1874783924022 0.000270244340051473 -0.534367816814903 
! Gamma         !               0.000138387019458302 0.209723016801719 4.1479350612609E-05 0.209626019532686 0.0012705776282128 0.210893657013749 
! Port Impedance50               0                50               0                50               0                

0.011            -0.162641960963542 -21.4227908125926 -14.3697456347578 68.6899149253311 -116.502753353935 158.113824065104 
                -14.3697456347578 68.6899149253313 -0.163980916516025 -21.1108855519983 -96.3595246533893 79.2501666465398 
                -116.502753353935 158.113824065109 -96.3595246533893 79.2501666465427 0.000168506834239077 -0.589468063721053 
! Gamma         !               0.000145150349143753 0.230688228902212 4.35065411466777E-05 0.230586496541931 0.00133427777802866 0.231916834063073 
! Port Impedance50               0                50               0                50               0                

0.012            -0.191739186845332 -23.2924623741199 -13.6764713277438 66.8349004675669 -115.061198395601 156.389390732296 
                -13.6764713277438 66.8349004675669 -0.19281012676951 -22.9520487049678 -95.6442929459174 78.3279938015467 
                -115.061198395602 156.389390732298 -95.6442929459175 78.327993801546  9.80114203988435E-05 -0.644100333808776 
! Gamma         !               0.000151613411856715 0.251653137667633 4.54437332709864E-05 0.251546882628699 0.00139519955889241 0.25293711240719 
! Port Impedance50               0                50               0                50               0                

0.013            -0.222391590863528 -25.1434734721169 -13.0481487181311 64.9985389447639 -113.742112792975 154.6226062077   
                -13.0481487181311 64.9985389447639 -0.223417184767695 -24.7743463764874 -94.9922908300272 77.4206450906705 
                -113.742112792977 154.622606207701 -94.9922908300271 77.4206450906709 4.87410110545334E-05 -0.698435688663495 
! Gamma         !               0.000157811625143208 0.272617780584961 4.73015423341169E-05 0.272507189029717 0.00145366694867096 0.273954848708241 
! Port Impedance50               0                50               0                50               0                

0.014            -0.254549173726852 -26.9747686198405 -12.4756493935142 63.1819169467086 -112.528636014919 152.84317850835  
                -12.4756493935142 63.1819169467088 -0.255650958909468 -26.576771547679 -94.3944451421125 76.5282413531513 
                -112.528636014919 152.843178508349 -94.3944451421126 76.5282413531511 1.43846406897401E-05 -0.752579391257674 
! Gamma         !               0.000163774231264742 0.293582188631651 4.90887329607305E-05 0.293467425030448 0.00150994786490454 0.29497033792556 
! Port Impedance50               0                50               0                50               0                

0.015            -0.288124904500626 -28.7853915951632 -11.9516857404803 61.3860030119792 -111.407063493992 151.066612202686 
                -11.9516857404803 61.3860030119793 -0.289357277479977 -28.3584244222248 -93.8435152639776 75.651081789972  
                -111.407063493992 151.066612202686 -93.8435152639776 75.6510817899725 -9.26448418629354E-06 -0.806597998974569 
! Gamma         !               0.000169525895198042 0.314546387479128 5.08126979308121E-05 0.314427598325823 0.00156426869443625 0.315983824743667 
! Port Impedance50               0                50               0                50               0                

0.016            -0.323007362276753 -30.5744873060897 -11.4703363592296 59.6116504689625 -110.366146013366 149.30144179464  
                -11.4703363592296 59.6116504689626 -0.324380596105283 -30.1185114232717 -93.3336230140615 74.789515143503  
                -110.366146013365 149.301441794646 -93.3336230140613 74.7895151435002 -2.51339978461392E-05 -0.860534489335908 
! Gamma         !               0.000175087652744228 0.335510398449931 5.24797422952789E-05 0.335387715307148 0.00161682286466058 0.336995512620514 
! Port Impedance50               0                50               0                50               0                

0.017            -0.359069050535743 -32.3413035406177 -11.0267155596051 57.8595998807538 -109.396552143688 147.552606798894 
                -11.0267155596051 57.8595998807539 -0.360565489939586 -31.8563431320898 -92.8599247308145 73.9438739776742 
                -109.396552143688 147.552606798893 -92.8599247308145 73.9438739776742 -3.53273806586552E-05 -0.914417055766168 
! Gamma         !               0.000180477533711352 0.356474239330694 5.40952701278949E-05 0.356347781305825 0.00166777644498987 0.358005571456017 
! Port Impedance50               0                50               0                50               0                

0.018            -0.396172222908273 -34.0851920073623 -10.6167376077255 56.1304816967102 -108.490461387158 145.823101302898 
                -10.6167376077255 56.1304816967103 -0.397757987579145 -33.5713312864265 -92.4183769761039 73.1144414961084 
                -108.490461387157 145.823101302897 -92.4183769761039 73.1144414961077 -4.13911514544167E-05 -0.968264399958814 
! Gamma         !               0.000185711025582839 0.377437925064821 5.56639234849872E-05 0.377307800800989 0.00171727230504138 0.379014144124483 
! Port Impedance50               0                50               0                50               0                

0.019            -0.434173198380729 -35.8056083054312 -10.2369450046101 54.4248194719713 -107.641255884403 144.114813918027 
                -10.2369450046101 54.4248194719713 -0.435806752582906 -35.2629849761638 -92.0055655648482 72.3014358164899 
                -107.641255884404 144.11481391803  -92.0055655648482 72.3014358164908 -4.44807337154236E-05 -1.02208900953711 
! Gamma         !               0.000190801453978654 0.398401468330104 5.71896964368318E-05 0.398267777592673 0.00176543353326126 0.400021351927978 
! Port Impedance50               0                50               0                50               0                

0.02             -0.47292570313759 -37.5021106340232 -9.88438107466352 52.7430338402441 -106.843285197326 142.428971771007 
                -9.88438107466351 52.7430338402441 -0.474564115115586 -36.9309061838514 -91.618578455942 71.5050039083691 
                -106.843285197325 142.428971771009 -91.618578455942 71.5050039083684 -4.54684566173326E-05 -1.07589923872441 
! Gamma         !               0.000195760311364877 0.419364880007634 5.86760335933166E-05 0.419227714942359 0.00181236640344306 0.42102729903122 
! Port Impedance50               0                50               0                50               0                

0.021            -0.512283540905555 -39.1743571850714 -9.55649385793969 51.0854472944441 -106.091685203011 140.766383756698 
                -9.5564938579397 51.0854472944441 -0.51388695645928 -38.5747848194321 -91.2549096647285 70.7252210004613 
                -106.091685203011 140.766383756702 -91.2549096647284 70.7252210004613 -4.50167672368688E-05 -1.12970065761486 
! Gamma         !               0.000200597545309615 0.440328169553027 6.01259165066461E-05 0.440187615684264 0.00185816298901742 0.442032075980056 
! Port Impedance50               0                50               0                50               0                

0.022            -0.552102764338196 -40.8221022653576 -9.25106252411838 49.4522897339942 -105.382237260993 139.127578791256 
                -9.25106252411837 49.4522897339943 -0.55363745090052 -40.1943933932306 -90.9123855279203 69.9620931161039 
                -105.382237260992 139.127578791255 -90.9123855279204 69.9620931161034 -4.3629559743457E-05 -1.18349694346263 
! Gamma         !               0.00020532180993247 0.461291345284198 6.1541939042288E-05 0.461147482311593 0.00190290345395212 0.463035762435341 
! Port Impedance50               0                50               0                50               0                

0.023            -0.59224344796571 -42.445191272448 -8.96614025332898 47.8437046704364 -104.711257590117 137.512887608892 
                -8.96614025332897 47.8437046704364 -0.593683671698524 -41.7895814604251 -90.5891073449784 69.2155613846533 
                -104.711257590116 137.512887608889 -90.5891073449784 69.215561384652  -4.16891919989567E-05 -1.23729047892392 
! Gamma         !               0.000209940682227716 0.482254414600832 6.29263722208196E-05 0.482107317042329 0.00194665803130069 0.484038429263153 
! Port Impedance50               0                50               0                50               0                

0.024            -0.632571123421501 -44.043554704171 -8.70000933165114 46.259755940063  -104.075509509101 135.92249343116  
                -8.70000933165113 46.259755940063  -0.633900069883395 -43.3602699552899 -90.2834061990845 68.4855073233916 
                -104.0755095091  135.92249343116  -90.2834061990846 68.4855073233916 -3.94838217494549E-05 -1.29108275912383 
! Gamma         !               0.000214460845154521 0.503217384149934 6.42812190978512E-05 0.503067121868851 0.00198948870314292 0.505040140115336 
! Port Impedance50               0                50               0                50               0                

0.025            -0.672957916434547 -45.617201416127 -8.45114542620291 44.700434749805  -103.472133142262 134.356465048203 
                -8.45114542620292 44.700434749805  -0.674167836212342 -44.9064455161124 -89.993806960541 67.7717585965893 
                -103.472133142262 134.356465048202 -89.9938069605409 67.7717585965888 -3.72280034330283E-05 -1.34487467181318 
! Gamma         !               0.000218888240145713 0.524180259950027 6.56082604767819E-05 0.52402689859516 0.0020314506034989 0.52604095261822 
! Port Impedance50               0                50               0                50               0                

0.026            -0.71328341465293 -47.1662113579987 -8.21818884219841 43.1656668770688 -102.898588590982 132.814779695206 
                -8.21818884219841 43.1656668770689 -0.714375157602978 -46.4281548833637 -89.7189992995028 67.074094942403  
                -102.898588590982 132.814779695206 -89.7189992995028 67.074094942402  -3.50784731694088E-05 -1.39866669193912 
! Gamma         !               0.000223228192328183 0.545143047484449 6.6909092441589E-05 0.544986648864845 0.00207259317250174 0.547040919267514 
! Port Impedance50               0                50               0                50               0                

0.027            -0.753435291092648 -48.6907280196298 -7.9999211504878 41.6553198520955 -102.352609582631 131.297339815358 
                -7.99992115048781 41.6553198520956 -0.754417379757704 -47.9254994357992 -89.4578141105959 66.392254070349  
                -102.352609582631 131.297339815359 -89.457814110596 66.3922540703488 -3.31464203016607E-05 -1.45245901767251 
! Gamma         !               0.00022748551207961 0.566105751772021 6.81851567962991E-05 0.565946374182255 0.0021129610938294 0.568040088107469 
! Port Impedance50               0                50               0                50               0                

0.028            -0.793309706999334 -50.1909508048172 -7.79524599052176 40.1692099692239 -101.832165345207 129.803986005825 
                -7.79524599052176 40.169209969224  -0.794197087561397 -49.398629912687 -89.2092041602311 65.7259374022424 
                -101.832165345207 129.803986005826 -89.2092041602311 65.7259374022414 -3.15071415419208E-05 -1.50625166588002 
! Gamma         !               0.000231664576575499 0.587068377421455 6.94377655065478E-05 0.586906075928821 0.00215259504817366 0.589038503254549 
! Port Impedance50               0                50               0                50               0                

0.029            -0.832811518372806 -51.6671275276854 -7.60317315345709 38.7071089978347 -101.33542899668 128.33450745097  
                -7.6031731534571 38.7071089978347 -0.833624114287215 -50.8477413560359 -88.9722280610579 65.0748155746959 
                -101.33542899668 128.334507450972 -88.9722280610579 65.0748155746961 -3.02077097868969E-05 -1.56004453918812 
! Gamma         !               0.000235769394783955 0.608030928674271 7.0668120179697E-05 0.607865755375904 0.00219153231408359 0.610036205310632 
! Port Impedance50               0                50               0                50               0                

0.03             -0.871854311216966 -53.1195471966162 -7.42280526838589 37.2687504916558 -100.860751138301 126.888650593497 
                -7.42280526838589 37.2687504916558 -0.872615489811042 -52.273068294849 -88.7460368918926 64.4385336510483 
                -100.860751138301 126.888650593498 -88.7460368918927 64.4385336510493 -2.92731121702472E-05 -1.61383747295876 
! Gamma         !               0.000239803659029091 0.628993409439656 7.18773275190691E-05 0.628825413695252 0.0022298072446757 0.631033231698618 
! Port Impedance50               0                50               0                50               0                

0.031            -0.910360291100389 -54.5485332171009 -7.2533265751472 35.8538356239126 -100.40663763977 125.466126484612 
                -7.2533265751472 35.8538356239127 -0.911095337037118 -53.6748801841517 -88.5298629391284 63.8167160104039 
                -100.40663763977 125.466126484612 -88.5298629391285 63.8167160104037 -2.87111907550553E-05 -1.66763026795036 
! Gamma         !               0.00024377078583951 0.64995582332371 7.30664115665866E-05 0.649785051967763 0.00226745164514234 0.652029616943803 
! Port Impedance50               0                50               0                50               0                

0.032            -0.94826005252315 -55.9544371103376 -7.09399338616729 34.4620385033822 -99.9717308285441 124.066617082022 
                -7.09399338616728 34.4620385033822 -0.948994724685323 -55.0534771046484 -88.3230101531656 63.2089708949973 
                -99.9717308285443 124.066617082021 -88.3230101531656 63.208970894998  -2.8516634527001E-05 -1.72142271271947 
! Gamma         !               0.000247673948378142 0.670918173654796 7.42363234221466E-05 0.670744671191085 0.00230449507222074 0.673025392917234 
! Port Impedance50               0                50               0                50               0                

0.033            -0.985492252779767 -57.337632811179 -6.94412592864706 33.0930109512359 -99.5547934654036 122.689780669459 
                -6.94412592864707 33.0930109512359 -0.986251483567849 -56.4091857240353 -88.1248460019035 62.6148946063497 
                -99.5547934654037 122.689780669459 -88.1248460019034 62.6148946063505 -2.8674211600327E-05 -1.77521459864308 
! Gamma         !               0.000251516102347937 0.691880463506094 7.53879490076069E-05 0.691704272286374 0.00234096507313847 0.694020589051986 
! Port Impedance50               0                50               0                50               0                

0.034            -1.022003213528  -58.6985115788524 -6.80310132524289 31.7463867396586 -99.1546950177889 121.335256519815 
                -6.80310132524289 31.7463867396587 -1.02280999254707 -57.742355517835 -87.9347944706449 62.0340753470771 
                -99.1546950177887 121.335256519816 -87.9347944706449 62.0340753470768 -2.91613870793618E-05 -1.82900572962636 
! Gamma         !               0.000255300006903966 0.712842695716122 7.65221153341495E-05 0.712663856104447 0.00237688737822312 0.715015232539552 
! Port Impedance50               0                50               0                50               0                

0.035            -1.05774647124321 -60.0374775278479 -6.67034752195954 30.4217853101283 -98.7703998416727 120.002668896129 
                -6.67034752195955 30.4217853101284 -1.05862093955034 -59.0533552456913 -87.7523300094104 61.4660967099197 
                -98.7703998416726 120.002668896128 -87.7523300094104 61.4660967099193 -2.99504406018788E-05 -1.88279592799024 
! Gamma         !               0.000259028241785381 0.733804872907688 7.76395956367382E-05 0.733623423431462 0.00241228605844816 0.736009348510911 
! Port Impedance50               0                50               0                50               0                

0.036            -1.0926822953199 -61.3549437650929 -6.54533801049511 29.1188150018774 -98.4009569593416 118.691630469621 
                -6.5453380104951 29.1188150018774 -1.09364106233312 -60.3425696779845 -87.5769722686203 60.9105408189759 
                -98.4009569593418 118.691630469618 -87.5769722686204 60.9105408189766 -3.10101738905684E-05 -1.93658503762575 
! Gamma         !               0.000262703221612671 0.75476699750555 7.87411136590422E-05 0.754582974994211 0.00244718365671185 0.75700296020505 
! Port Impedance50               0                50               0                50               0                

0.037            -1.12677718995147 -62.6513291031274 -6.42758722182603 27.8370758296885 -98.0454911800295 117.401745225188 
                -6.42758722182605 27.8370758296886 -1.12783287312338 -61.6103965670547 -87.4082814952707 60.3669911308486 
                -98.0454911800293 117.401745225189 -87.4082814952707 60.3669911308493 -3.23072809679111E-05 -1.9903729252122 
! Gamma         !               0.000266327208074513 0.775729071752945 7.98273473059055E-05 0.77554251146508 0.00248160129959669 0.777996089126579 
! Port Impedance50               0                50               0                50               0                

0.038            -1.16000339322845 -63.9270553072647 -6.31664649066099 26.5761618552528 -97.7031953569676 116.132610918948 
                -6.31664649066099 26.5761618552529 -1.16116437083408 -62.8572438569989 -87.2458544861904 59.8350349056774 
                -97.7031953569674 116.132610918948 -87.2458544861905 59.8350349056768 -3.38074399060317E-05 -2.04415948008484 
! Gamma         !               0.000269902320549821 0.796691097727088 8.0898931826891E-05 0.796502033466685 0.00251555879469694 0.798988755193353 
! Port Impedance50               0                50               0                50               0                

0.039            -1.19233838428124 -65.1825448271863 -6.21210050820119 25.335663198431  -97.3733236111995 114.883821147403 
                -6.2121005082012 25.335663198431  -1.19360874417469 -64.0835271257472 -87.0893210143031 59.3142653600073 
                -97.3733236111997 114.883821147404 -87.0893210143032 59.3142653600085 -3.54761744203681E-05 -2.09794461318298 
! Gamma         !               0.000273430545568877 0.817653077353669 8.19564626519373E-05 0.817461541576227 0.00254907471728107 0.819980976874555 
! Port Impedance50               0                50               0                50               0                

0.04             -1.22376440685207 -66.4182189594925 -6.11356419466525 24.1151677345107 -97.0551853817165 113.654967083304 
                -6.11356419466525 24.1151677345107 -1.22514406870455 -65.2896672528129 -86.9383406591626 58.8042835152066 
                -97.0551853817166 113.654967083303 -86.9383406591627 58.8042835152078 -3.72795249762107E-05 -2.15172825539583 
! Gamma         !               0.000276913745406952 0.838615012420385 8.30004979670561E-05 0.838421036329542 0.00258216648902536 0.84097277131955 
! Port Impedance50               0                50               0                50               0                

0.041            -1.25426801548252 -67.6344963867264 -6.02067993418845 22.9142625215566 -96.7481401848873 112.445638928152 
                -6.02067993418846 22.9142625215566 -1.25575300062907 -66.4760883057001 -86.7925999852924 58.3046997566609 
                -96.7481401848874 112.445638928152 -86.7925999852924 58.3046997566609 -3.91845627084735E-05 -2.20551035553994 
! Gamma         !               0.000280353666019079 0.859576904589518 8.40315610926087E-05 0.859380518224878 0.00261485045076264 0.861964154477639 
! Port Impedance50               0                50               0                50               0                

0.042            -1.28383964858446 -68.8317920396489 -5.93311512367582 21.7325349987453 -96.4515929850644 111.255427126387 
                -5.93311512367582 21.7325349987454 -1.28542246992624 -67.6432156374178 -86.651810021666 57.8151351204464 
                -96.4515929850645 111.255427126387 -86.6518100216661 57.8151351204472 -4.11597735261811E-05 -2.25929087813723 
! Gamma         !               0.000283751944460911 0.880538755409575 8.50501427075806E-05 0.880339987726375 0.00264714193059303 0.882955141208914 
! Port Impedance50               0                50               0                50               0                

0.043            -1.31247323103982 -70.0105162324494 -5.85055999448202 20.5695739926319 -96.1649900936205 110.083923380988 
                -5.85055999448202 20.5695739926319 -1.3141433751891 -68.7914741869283 -86.5157040035652 57.3352223253065 
                -96.1649900936206 110.083923380988 -86.5157040035652 57.3352223253066 -4.31753355116582E-05 -2.31306980111731 
! Gamma         !               0.000287110115893334 0.901500566326008 8.60567029491262E-05 0.901299445267288 0.00267905530826125 0.903945745386375 
! Port Impedance50               0                50               0                50               0                

0.044            -1.34016580764204 -71.1710740245774 -5.77272567178831 19.4249705639891 -95.8878155263018 108.930721505173 
                -5.77272567178832 19.4249705639892 -1.34191028237262 -69.9212869736778 -86.384035344411 56.8646065686803 