! Touchstone file exported from HFSS 2018.2.0
!        File:           E:/Julien/ICRH/WEST Antenna/Complete Numerical Antenna Model/WEST_ICRH_Capacitor.aedt
!        Generated:      5:40:25  janv. 09, 2019
!        Design:         WEST_ICRH_Voltage_Probes_depth_m5mm_optimetrics_silver_Part2
!        Project:        WEST_ICRH_Capacitor
!        Setup:          Setup1
!        Solution:       Sweep
!
! Variables:
!        D_cylinders = 100mm
!        D_cylinders_step = 110.908mm
!        d_half_wave = 3.33333333333333mm
!        d_mesh = 7mm
!        deemb1 = 150mm
!        deemb2 = 150mm
!        deemb3 = 100mm
!        depth = -5mm
!        diameter_bellows_fixed_center_1 = 76mm
!        diameter_bellows_fixed_center_2 = 72mm
!        diameter_bellows_fixed_left_1 = 76mm
!        diameter_bellows_fixed_left_2 = 71mm
!        diameter_big_wave = 74.925mm
!        diameter_cylinder_1 = 140mm
!        diameter_cylinder_2 = 110mm
!        diameter_cylinder_3 = 80mm
!        diameter_cylinder_4 = 50mm
!        diameter_cylinder_5 = 19.985mm
!        diameter_cylinders_fixed = 143mm
!        diameter_small_wave = 51mm
!        diametre_coax_external = 216mm
!        diametre_probe_cavity = 13mm
!        diametre_probe_external = 7mm
!        diametre_probe_head = 7mm
!        diametre_probe_internal = 3mm
!        length_bellows_fixed_center_1 = 4.1mm
!        length_bellows_fixed_center_2 = 6.042mm
!        length_bellows_fixed_left_1 = 4.1mm
!        length_bellows_fixed_left_2 = 13mm
!        length_cylinders = 45.5mm
!        length_cylinders_fixed = 7mm
!        length_probe = 114mm
!        length_probe_cavity = 23mm
!        length_probe_head = 9.5mm
!        parois_cavity_probe = 1mm
!        parois_probe = 1mm
!        thickness_cylinder_1 = 1.5mm
!        thickness_cylinder_2 = 1.5mm
!        thickness_cylinder_3 = 1.5mm
!        thickness_cylinder_4 = 1.5mm
!        top_probe = 14mm
!        y0_bellows1 = 223.3mm
!
# GHZ S DB R 50.000000
! Modal data exported
! Port[1] = 1:1
! Port[2] = 2:1
! Port[3] = 3:1
0.001            1.86366187318554 -4.95997187294387 -22.2193382246157 85.0737829386417 -97.9675468220797 -165.67738496704 
                -22.2193382246159 85.073782938646  -0.000953618258116128 -4.86997238967743 -117.413116513396 130.236476428087 
                -97.9675468220875 -165.677384967081 -117.41311651341 130.236476427386 0.203311756463971 2.20500875368593 
! Gamma         !               4.3767361791728E-05 0.0210023372331314 1.31171022517947E-05 0.0209716027582769 0.000388372467842814 0.0213639143102838 
! Port Impedance50               0                50               0                50               0                

0.002            0.224683283603031 -9.67106291659759 -17.1646619405655 80.2915214200187 -124.04324368762 -15.1304374359669 
                -17.1646619405706 80.2915214200092 -0.0782821153806044 -9.67491599626019 -108.974341200387 88.0380349344573 
                -124.043243687573 -15.1304374358585 -108.974341200414 88.0380349345874 0.0470569513102571 0.353189507140481 
! Gamma         !               6.21400296124553E-05 0.041979105781427 1.86234149760358E-05 0.0419355435989371 0.000556994124909896 0.0424956188062356 
! Port Impedance50               0                50               0                50               0                

0.003            -0.06422766778659 -14.3689368884448 -13.8656096960104 75.5706304166338 -135.641806763234 169.732268450768 
                -13.8656096960118 75.5706304166277 -0.179777591553454 -14.3920599089579 -107.225646484685 82.7596310051464 
                -135.641806763304 169.732268450304 -107.225646484687 82.7596310051596 0.0149933197187326 0.0136566271068381 
! Gamma         !               7.59683467613036E-05 0.062951342724996 2.27677486733159E-05 0.0628981260889162 0.000684869438394203 0.063585049211133 
! Port Impedance50               0                50               0                50               0                

0.004            -0.257701827436553 -18.9432611182252 -11.5594842614507 70.9972208345091 -124.106249509842 161.143924615211 
                -11.5594842614512 70.9972208345059 -0.313466466309733 -18.979530573622 -105.159028097974 80.5827939958006 
                -124.106249509853 161.143924615187 -105.159028097973 80.5827939957971 0.00615516803897811 -0.132408476341754 
! Gamma         !               8.76567199522438E-05 0.0839215740406809 2.62708456578021E-05 0.0838601074269865 0.000793381355899299 0.0846555888200347 
! Port Impedance50               0                50               0                50               0                

0.005            -0.446554907792596 -23.3579661502538 -9.83323474699682 66.5857848694649 -119.414427677002 156.399972519421 
                -9.83323474699687 66.5857848694631 -0.476372814969263 -23.4051390219858 -103.455552418908 78.5038321595275 
                -119.414427677017 156.399972519385 -103.455552418908 78.5038321595418 0.00302962610627798 -0.224953813955412 
! Gamma         !               9.80163173346675E-05 0.104890402157468 2.93757327872443E-05 0.104821668155849 0.00088984306044053 0.1057129014781  
! Port Impedance50               0                50               0                50               0                

0.006            -0.647107582918881 -27.5887121695542 -8.48736374547305 62.3573056407287 -116.19196415663 152.107146782626 
                -8.48736374547297 62.3573056407274 -0.663860478496552 -27.6453749803835 -102.069696316884 76.5658389785434 
                -116.191964156636 152.107146782607 -102.069696316884 76.5658389785415 0.0016924499849477 -0.297613831593342 
! Gamma         !               0.000107387658429384 0.125858213769256 3.21844378717933E-05 0.125782924198948 0.00097730860289949 0.126760600705935 
! Port Impedance50               0                50               0                50               0                

0.007            -0.861240725252184 -31.620127855141 -7.41041579012666 58.3269524990037 -113.673725289897 148.072006460944 
                -7.41041579012655 58.326952499003  -0.87088167754134 -31.6850452728446 -100.924733733216 74.7900870091299 
                -113.673725289895 148.072006460936 -100.924733733215 74.7900870091235 0.00102608675467906 -0.361531924482777 
! Gamma         !               0.000115997118038984 0.146825269606029 3.47648039488372E-05 0.146743953713594 0.00105781268309418 0.147801130926501 
! Port Impedance50               0                50               0                50               0                

0.008            -1.08683038816511 -35.4445317192615 -6.53312224700614 54.5027620975027 -111.597523279136 144.259258538121 
                -6.53312224700603 54.5027620975023 -1.09245274159391 -35.5164356300718 -99.962348439046 73.1806101003902 
                -111.597523279133 144.259258538111 -99.962348439046 73.1806101003832 0.000651672373399055 -0.421136873287699 
! Gamma         !               0.000124007569930315 0.167791735037404 3.71656455059127E-05 0.167704806267271 0.00113282741498051 0.168836050641649 
! Port Impedance50               0                50               0                50               0                

0.009            -1.32059185943547 -39.0605886916478 -5.80904040359774 50.8864751232036 -109.835285847512 140.657920415142 
                -5.80904040359764 50.886475123203  -1.32392347385309 -39.138110933272 -99.1405548811139 71.734230893008  
                -109.835285847514 140.657920415141 -99.1405548811138 71.7342308930093 0.000421695409470144 -0.478427347119692 
! Gamma         !               0.000131533600592941 0.188757717655401 3.94213041711368E-05 0.188665514108096 0.00120339273190018 0.18986637782062 
! Port Impedance50               0                50               0                50               0                

0.01             -1.55908501690472 -42.4719062469126 -5.20529177857227 47.474837122333  -108.311034874022 137.260440174621 
                -5.20529177857221 47.4748371223327 -1.5611320444151 -42.5535706141509 -98.4287737291288 70.44360817344   
                -108.311034874023 137.26044017464  -98.4287737291283 70.4436081734336 0.00027147532578925 -0.534396235633468 
! Gamma         !               0.000138655789531261 0.209723293061098 4.15559290632483E-05 0.209626099895769 0.00127024166047537 0.210892829106311 
! Port Impedance50               0                50               0                50               0                

0.011            -1.79911909507121 -45.6856986756594 -4.69767005480768 44.2609191301429 -106.974278623743 134.058415547785 
                -4.69767005480762 44.2609191301425 -1.80047800391288 -45.769937287372 -97.8042719051084 69.298701331892  
                -106.974278623744 134.058415547778 -97.8042719051082 69.2987013318923 0.000169440586155379 -0.589574852689173 
! Gamma         !               0.000145432608003497 0.230688518659161 4.35870435270095E-05 0.230586580836352 0.00133390681675849 0.231915948942739 
! Port Impedance50               0                50               0                50               0                

0.012            -2.03791335702445 -48.7116148748453 -4.26783865044091 41.2352949915721 -105.789043962869 131.04199970793  
                -4.26783865044087 41.2352949915717 -2.03893650593255 -48.7967919335722 -97.2498286178173 68.2878239801985 
                -105.789043962872 131.041999707938 -97.249828617817 68.2878239802014 9.8602527296035E-05 -0.644264478534958 
! Gamma         !               0.000151908561210198 0.25165344031643 4.5527985581714E-05 0.251546970677821 0.00139479403535492 0.252936172423171 
! Port Impedance50               0                50               0                50               0                

0.013            -2.27314341096518 -51.5607747918357 -3.90161244324702 38.3870142426199 -104.728521177142 128.20023220529  
                -3.901612443247  38.3870142426198 -2.27403333878542 -51.6452094400852 -96.7521979760286 67.3984803108675 
                -104.728521177141 128.20023220529  -96.7521979760289 67.3984803108638 4.89991097639165E-05 -0.69864387073776 
! Gamma         !               0.000158119137280267 0.272618095594688 4.73893911004144E-05 0.272507280678835 0.00145322734258479 0.273953855994943 
! Port Impedance50               0                50               0                50               0                

0.014            -2.50293060339442 -54.2450200038754 -3.58784253960649 35.7043610044491 -103.772104470044 125.521544112563 
                -3.58784253960648 35.7043610044489 -2.50379671767812 -54.3270047440438 -96.3010681315739 66.6180112341862 
                -103.772104470045 125.521544112564 -96.3010681315734 66.6180112341877 1.43522398226261E-05 -0.752822922036281 
! Gamma         !               0.000164093636700657 0.293582515533207 4.91800416777713E-05 0.293467520142938 0.0015094746922984 0.294969294415196 
! Port Impedance50               0                50               0                50               0                

0.015            -2.72580376044334 -56.7763594632272 -3.31765774111271 33.1754167729396 -102.903599498485 122.994214783558 
                -3.31765774111271 33.1754167729395 -2.72669780620259 -56.854173258699 -95.8883345261102 65.9340657483692 
                -102.903599498486 122.994214783555 -95.8883345261101 65.9340657483702 -9.52815896464638E-06 -0.806871092472156 
! Gamma         !               0.000169856773533543 0.314546725854655 5.09073444122119E-05 0.314427696780011 0.0015637624911263 0.315982732181482 
! Port Impedance50               0                50               0                50               0                

0.016            -2.94064936933147 -59.1665798369748 -3.08392883131041 30.7884574092563 -102.110061188456 120.606722900388 
                -3.08392883131045 30.7884574092564 -2.94158822050315 -59.238496385915 -95.5075780357281 65.3349215615696 
                -102.110061188456 120.606722900391 -95.5075780357281 65.3349215615677 -2.55637630959004E-05 -0.860833241867994 
! Gamma         !               0.000175429625437285 0.335510747924153 5.25776165604264E-05 0.335387816993756 0.00161628417040365 0.336994372582928 
! Port Impedance50               0                50               0                50               0                

0.017            -3.14665920215342 -61.4269870382565 -2.8808788477194 28.5322177320491 -101.381000797996 118.347990379298 
                -2.88087884771942 28.5322177320492 -3.14763971392751 -61.4912793016261 -95.1536813686288 64.8096838560242 
                -101.381000797995 118.347990379295 -95.1536813686286 64.8096838560248 -3.58588622774417E-05 -0.91473881805733 
! Gamma         !               0.000180830258101848 0.356474599563881 5.41962726477425E-05 0.356347886125907 0.00166720579079081 0.358004385370271 
! Port Impedance50               0                50               0                50               0                

0.018            -3.34328025564771 -63.5682477586924 -2.70379294663008 26.3960549972808 -100.707823681694 116.207535492008 
                -2.7037929466301 26.3960549972809 -3.34428895629268 -63.623189952765 -94.8225417355255 64.3483907807542 
                -100.707823681694 116.20753549201  -94.8225417355251 64.3483907807554 -4.19648033880824E-05 -0.968607377053247 
! Gamma         !               0.000186074189844165 0.377438295747117 5.57679636980006E-05 0.377307908664276 0.00171667020433279 0.379012913288232 
! Port Impedance50               0                50               0                50               0                

0.019            -3.53016940849356 -65.6003043598339 -2.54879851067409 24.3700380417078 -100.083418705163 114.175554908515 
                -2.54879851067411 24.3700380417081 -3.5311887444499 -65.6441725053552 -94.5108523918385 63.9420508804715 
                -100.083418705163 114.175554908512 -94.5108523918388 63.9420508804697 -4.50440314634475E-05 -1.02245199813731 
! Gamma         !               0.000191174772825797 0.398401849177001 5.72966914885419E-05 0.398267888416251 0.00176480047668937 0.400020077527597 
! Port Impedance50               0                50               0                50               0                

0.02             -3.7071537297475 -67.5323416662768 -2.41269614028073 22.4449836912973 -99.5018513993757 112.242952103085 
                -2.41269614028075 22.4449836912975 -3.7081659690641 -67.5634135594581 -94.2159345209187 63.5826330834679 
                -99.5018513993761 112.242952103083 -94.2159345209184 63.5826330834674 -4.59769065012241E-05 -1.07628145028153 
! Gamma         !               0.000196143522413887 0.419365270756384 5.87859072697216E-05 0.419227828649635 0.00181170285656051 0.421025982158097 
! Port Impedance50               0                50               0                50               0                

0.021            -3.87419653162494 -69.372789101939 -2.2928282925985 20.6124571323568 -98.9581303086091 110.401325025402 
                -2.29282829259852 20.6124571323569 -3.87518606534398 -69.3893443202417 -93.9356064846546 63.2630251874108 
                -98.95813030861  110.401325025399 -93.9356064846545 63.2630251874118 -4.5434162410237E-05 -1.13010159653443 
! Gamma         !               0.000200990406007455 0.440328569959791 6.02385983375543E-05 0.44018773220414 0.00185746939208203 0.442030717644596 
! Port Impedance50               0                50               0                50               0                

0.022            -4.03136881101988 -71.1293458129933 -2.18697624213826 18.8647487288173 -98.4480261893226 108.642919851618 
                -2.18697624213828 18.8647487288174 -4.03232336198578 -71.1296661370933 -93.6680810100354 62.9769724611535 
                -98.4480261893233 108.642919851616 -93.6680810100352 62.9769724611552 -4.39277684431098E-05 -1.18391632167347 
! Gamma         !               0.000205724094984349 0.461291755121761 6.16573635525498E-05 0.46114760157781 0.00190218022310144 0.463034363578654 
! Port Impedance50               0                50               0                50               0                

0.023            -4.17882551465924 -72.8090198152964 -2.09327863062606 17.1948363589782 -97.9679299631371 106.960548528816 
                -2.09327863062608 17.1948363589784 -4.17973661174725 -72.7913902588002 -93.4118830635952 62.7190039409383 
                -97.9679299631374 106.960548528814 -93.4118830635952 62.719003940936  -4.18476649983513E-05 -1.23772815500296 
! Gamma         !               0.000210352181452676 0.482254833656768 6.3044478308353E-05 0.482107438992935 0.00194590556051167 0.484036990766615 
! Port Impedance50               0                50               0                50               0                

0.024            -4.31678599435427 -74.4181748349786 -2.01016665002931 15.5963396975876 -97.514739272029 105.347449955357 
                -2.01016665002932 15.5963396975877 -4.31764896646988 -74.3808853312104 -93.1657821519927 62.4843493407614 
                -97.5147392720294 105.347449955357 -93.1657821519925 62.4843493407594 -3.94889411075926E-05 -1.29153869435303 
! Gamma         !               0.000214881361703889 0.503217812225093 6.44019495185675E-05 0.503067246445769 0.00198870736653921 0.505038662808315 
! Port Impedance50               0                50               0                50               0                

0.025            -4.44551802905243 -75.9625804881443 -1.93631215338356 14.0634708758783 -97.0857662358235 103.797028662317 
                -1.93631215338356 14.0634708758784 -4.44633170011592 -75.9039281858374 -92.9287319707792 62.2688407704686 
                -97.085766235823 103.797028662316 -92.9287319707792 62.2688407704679 -3.70723516680342E-05 -1.34534889813325 
! Gamma         !               0.0002193175890242 0.52418069685728 6.57315614181959E-05 0.524027025743823 0.0020306407577054 0.52603943728425 
! Port Impedance50               0                50               0                50               0                

0.026            -4.56532484068523 -77.4474628958454 -1.87058588844858 12.5909844875003 -96.6786629643188 102.302256944104 
                -1.87058588844857 12.5909844875003 -4.56609105404468 -77.3657549559108 -92.6998047250685 62.0687655232483 
                -96.6786629643184 102.302256944105 -92.6998047250685 62.0687655232469 -3.47600741365645E-05 -1.39915928840566 
! Gamma         !               0.000223666199163824 0.545143493047615 6.70349131689496E-05 0.544986778533883 0.00207175515885817 0.547039366649213 
! Port Impedance50               0                50               0                50               0                

0.027            -4.67653459802212 -78.8775538721525 -1.81202370925534 11.1741288539624 -96.2913833051952 100.853930343268 
                -1.81202370925534 11.1741288539624 -4.67725766014652 -78.7711106275951 -92.4780835972438 61.8805029708346 
                -96.2913833051938 100.853930343271 -92.4780835972439 61.8805029708362 -3.26679845082807E-05 -1.45297009308305 
! Gamma         !               0.000227932012095827 0.566106205824933 6.83134493572997E-05 0.565946506323231 0.00211209524035825 0.568038498910485 
! Port Impedance50               0                50               0                50               0                

0.028            -4.77949197365361 -80.2571375570514 -1.75979911150528 9.80859971855086 -95.92243002494  99.4337792678296 
                -1.75979911150527 9.80859971855077 -4.78017807856152 -80.1242958895615 -92.2623643640451 61.6988282179014 
                -95.9224300249359 99.4337792678322 -92.2623643640446 61.69882821791   -3.08753369268464E-05 -1.50678134594056 
! Gamma         !               0.000232119413725685 0.587068839807147 6.95684844828915E-05 0.586906210495983 0.00215170167125784 0.589036878150736 
! Port Impedance50               0                50               0                50               0                

0.029            -4.87455138675925 -81.5900938729823 -1.71320080718889 8.49049702168228 -95.5761346788121 97.9767605683805 
                -1.71320080718888 8.49049702168207 -4.87520806176287 -81.4292106657774 -92.0501992048386 61.5003801002349 
                -95.5761346787909 97.9767605682977 -92.0501992048315 61.5003801002658 -2.94324704021999E-05 -1.56059295704532 
! Gamma         !               0.000236232421015779 0.608031399244238 7.08012224758688E-05 0.60786589232598 0.00219061171984884 0.610034544940653 
! Port Impedance50               0                50               0                50               0                

0.03             -4.96207162511948 -82.8799385266597 -1.67161433445368 7.21628506056722 -95.3061037912739 96.8633736409439 
                -1.67161433445366 7.2162850605671  -4.96270722321039 -82.6893940682162 -91.867241869548 61.2308140913991 
                -95.3061037913743 96.8633736410898 -91.8672418695701 61.2308140912233 -2.83669639029597E-05 -1.61440476235941 
! Gamma         !               0.000240274733651861 0.628993888053193 7.20127721805249E-05 0.628825552987248 0.00222885973009693 0.631031536674127 
! Port Impedance50               0                50               0                50               0                

0.031            -5.0424115927028 -84.1298595034743 -1.63450691370444 5.98275610452436 -94.9400115847668 95.7992154510345 
                -1.63450691370442 5.98275610452412 -5.04303484589674 -83.9080607366206 -91.6738547796238 61.1891278505663 
                -94.9400115847613 95.7992154511641 -91.6738547796288 61.1891278505979 -2.76887428147006E-05 -1.66821655841788 
! Gamma         !               0.00024424977497326 0.649956309847309 7.32041596211785E-05 0.649785193562791 0.0022664774989067 0.652027887849302 
! Port Impedance50               0                50               0                50               0                

0.032            -5.1159269741243 -85.3427501452134 -1.60141492669041 4.7869973894195  -94.6199582020087 94.558828384014  
                -1.60141492669039 4.78699738941922 -5.11654661427082 -85.0881336775757 -91.4809117018809 61.0522295869945 
                -94.619958202004 94.5588283840555 -91.480911701882 61.0522295870114 -2.73939448837296E-05 -1.72202812564134 
! Gamma         !               0.000248160724467676 0.67091866796159 7.43763377399519E-05 0.670744815052196 0.00230349457538561 0.673023630311704 
! Port Impedance50               0                50               0                50               0                

0.033            -5.182967644897  -86.5212389878941 -1.57193352391896 3.62636132478726 -94.3192919012633 93.3664039459232 
                -1.57193352391894 3.62636132478698 -5.18359209305608 -86.2322738009319 -91.2948038077427 60.9047785722705 
                -94.3192919012606 93.3664039459432 -91.2948038077429 60.90477857228   -2.74683287000332E-05 -1.77583924530877 
! Gamma         !               0.000252010543728803 0.691880965475348 7.55301941754364E-05 0.69170441837841 0.00233993849962345 0.694018793470351 
! Port Impedance50               0                50               0                50               0                

0.034            -5.24387568757701 -87.6677165840933 -1.5457079660651 2.4984386971695  -94.0318610964879 92.214362836953  
                -1.54570796606508 2.49843869716918 -5.24451280946117 -87.3429063975129 -91.1142454828564 60.7558105474668 
                -94.0318610964859 92.2143628369635 -91.1142454828564 60.7558105474735 -2.78899126635785E-05 -1.8296497096784 
! Gamma         !               0.000255801997410357 0.712843205232767 7.66665575418996E-05 0.712664004393903 0.0023758349951723 0.715013404494016 
! Port Impedance50               0                50               0                50               0                

0.035            -5.29898389954791 -88.7843595552696 -1.52242638365809 1.40103462980783 -93.7556967082379 91.0968004769159 
                -1.52242638365807 1.40103462980749 -5.29964082224829 -88.4222448208769 -90.938661025291 60.6064523407258 
                -93.7556967082362 91.0968004769226 -90.9386610252911 60.6064523407306 -2.86311393543947E-05 -1.88345932864365 
! Gamma         !               0.00025953767039239 0.73380538986189 7.77862025734535E-05 0.733623573886362 0.00241120812649517 0.7360074884922  
! Port Impedance50               0                50               0                50               0                

0.036            -5.34861469917379 -89.8731521239572 -1.50181370125069 0.332147052969096 -93.4897011905403 90.0100033240883 
                -1.50181370125067 0.332147052968713 -5.34929768307731 -89.4723116376096 -90.7677105902889 60.4566587611026 
                -93.4897011905391 90.0100033240918 -90.7677105902889 60.4566587611059 -2.96606321755365E-05 -1.93726793341477 
! Gamma         !               0.000263219982107214 0.754767521792314 7.88898544170967E-05 0.75458312758399 0.00244608043017506 0.757001068683585 
! Port Impedance50               0                50               0                50               0                

0.037            -5.39307935418028 -90.9359053692653 -1.48362652124348 -0.710052555536292 -93.2330742093381 88.9512921809596 
                -1.48362652124346 -0.710052555536627 -5.39379371336281 -90.4949575015195 -90.6011486517374 60.3061654532478 
                -93.2330742093373 88.9512921809629 -90.6011486517373 60.3061654532504 -3.09446115540124E-05 -1.99107537813599 
! Gamma         !               0.000266851198750653 0.775729603271756 7.99781922921268E-05 0.775542666160476 0.00248047302662718 0.777994166553586 
! Port Impedance50               0                50               0                50               0                

0.038            -5.43267747007871 -91.9742744362911 -1.46764880142519 -1.72723638809508 -92.9851594301101 87.9185353083875 
                -1.46764880142517 -1.72723638809541 -5.43342753431926 -91.4918779917422 -90.4387772515505 60.1546948432177 
                -92.9851594301094 87.9185353083887 -90.4387772515505 60.1546948432197 -3.24480299629157E-05 -2.04488154005325 
! Gamma         !               0.000270433443925356 0.796691636381578 8.10518526797573E-05 0.796502190239645 0.00251440571739705 0.798986802001919 
! Port Impedance50               0                50               0                50               0                

0.039            -5.46769668781251 -92.9897739137334 -1.45368819129584 -2.7209356960234 -92.7453894177019 86.9099360016871 
                -1.45368819129584 -2.72093569602375 -5.46848579955741 -92.4646286361442 -90.2804270698775 60.0020090866852 
                -92.7453894177013 86.9099360016904 -90.2804270698774 60.0020090866871 -3.41354740052328E-05 -2.0986863186838 
! Gamma         !               0.000273968708120834 0.817653623051315 8.21114321642087E-05 0.817461700399816 0.00254789707180727 0.819978993480639 
! Port Impedance50               0                50               0                50               0                

0.04             -5.49841254906151 -93.983791576125 -1.441572917055  -3.69255454457888 -92.5132606656162 85.9239286683211 
                -1.44157291705499 -3.69255454457927 -5.49924308906078 -93.4146383215366 -90.1259483056636 59.8479220860102 
                -92.5132606656159 85.9239286683222 -90.1259483056635 59.8479220860117 -3.59718732265414E-05 -2.15248963432036 
! Gamma         !               0.000277458857324232 0.838615565072235 8.31574900133623E-05 0.838421197177866 0.00258096450568539 0.840970758122945 
! Port Impedance50               0                50               0                50               0                

0.041            -5.52508849518517 -94.9576006689313 -1.43114912507271 -4.64338211167415 -92.2883199505908 84.9591217638352 
                -1.43114912507269 -4.64338211167451 -5.52596193103886 -94.3432212723499 -89.9752056163728 59.6922988318755 
                -92.2883199505905 84.9591217638358 -89.9752056163727 59.6922988318767 -3.79230488548044E-05 -2.20629142611593 
! Gamma         !               0.000280905640970933 0.85957746410994 8.41905505616326E-05 0.859380681073005 0.00261362435411408 0.861962111862893 
! Port Impedance50               0                50               0                50               0                

0.042            -5.54797597194383 -95.9123708971006 -1.42227860973345 -5.57460369024955 -92.0701556982556 84.0142629884619 
                -1.42227860973345 -5.57460369024983 -5.54889292437508 -95.2515877603297 -89.8280749798902 59.5350506880463 
                -92.0701556982553 84.0142629884634 -89.82807497989  59.5350506880471 -3.99561298677136E-05 -2.26009164992786 
! Gamma         !               0.000284310699380183 0.880539321716031 8.52111054385535E-05 0.880340152550275 0.00264589193954784 0.882953069546199 
! Port Impedance50               0                50               0                50               0                

0.043            -5.56731461717168 -96.8491782609438 -1.4148368645469 -6.48731053769481 -91.8583918985986 83.0882160448173 
                -1.41483686454689 -6.48731053769508 -5.56827493944197 -96.1408536899854 -89.6844415774584 59.3761295970251 
                -91.8583918985983 83.0882160448177 -89.6844415774584 59.3761295970258 -4.20398596403158E-05 -2.31389027605331 
! Gamma         !               0.000287675570773655 0.901501139338844 8.62196156724072E-05 0.901299612043769 0.00267778163619894 0.903943645032319 
! Port Impedance50               0                50               0                50               0                

0.044            -5.58333251269797 -97.7690138677264 -1.40871140597693 -7.38250870031103 -91.6526834862442 82.1799439144025 
                -1.40871140597693 -7.38250870031122 -5.58433537916861 -97.0120491881244 -89.5441982742299 59.2155223080308 