! Touchstone file exported from HFSS 2018.2.0
!        File:           E:/Julien/ICRH/WEST Antenna/Complete Numerical Antenna Model/WEST_ICRH_Capacitor.aedt
!        Generated:      5:40:57  janv. 09, 2019
!        Design:         WEST_ICRH_Voltage_Probes_depth_m5mm_optimetrics_silver_Part2
!        Project:        WEST_ICRH_Capacitor
!        Setup:          Setup1
!        Solution:       Sweep
!
! Variables:
!        D_cylinders = 80mm
!        D_cylinders_step = 110.908mm
!        d_half_wave = 2.66666666666667mm
!        d_mesh = 7mm
!        deemb1 = 150mm
!        deemb2 = 150mm
!        deemb3 = 100mm
!        depth = -5mm
!        diameter_bellows_fixed_center_1 = 76mm
!        diameter_bellows_fixed_center_2 = 72mm
!        diameter_bellows_fixed_left_1 = 76mm
!        diameter_bellows_fixed_left_2 = 71mm
!        diameter_big_wave = 74.925mm
!        diameter_cylinder_1 = 140mm
!        diameter_cylinder_2 = 110mm
!        diameter_cylinder_3 = 80mm
!        diameter_cylinder_4 = 50mm
!        diameter_cylinder_5 = 19.985mm
!        diameter_cylinders_fixed = 143mm
!        diameter_small_wave = 51mm
!        diametre_coax_external = 216mm
!        diametre_probe_cavity = 13mm
!        diametre_probe_external = 7mm
!        diametre_probe_head = 7mm
!        diametre_probe_internal = 3mm
!        length_bellows_fixed_center_1 = 4.1mm
!        length_bellows_fixed_center_2 = 6.042mm
!        length_bellows_fixed_left_1 = 4.1mm
!        length_bellows_fixed_left_2 = 13mm
!        length_cylinders = 45.5mm
!        length_cylinders_fixed = 7mm
!        length_probe = 114mm
!        length_probe_cavity = 23mm
!        length_probe_head = 9.5mm
!        parois_cavity_probe = 1mm
!        parois_probe = 1mm
!        thickness_cylinder_1 = 1.5mm
!        thickness_cylinder_2 = 1.5mm
!        thickness_cylinder_3 = 1.5mm
!        thickness_cylinder_4 = 1.5mm
!        top_probe = 14mm
!        y0_bellows1 = 223.3mm
!
# GHZ S DB R 50.000000
! Modal data exported
! Port[1] = 1:1
! Port[2] = 2:1
! Port[3] = 3:1
0.001            1.99700975083673 -2.60021389124338 -31.4263933335086 86.5781379336824 -98.6289780040483 103.646582869707 
                -31.4263933335091 86.5781379336789 0.0193076112880254 -2.28861723058617 -108.375943036321 150.899318903026 
                -98.6289780039133 103.646582870006 -108.375943036317 150.899318903085 0.210716825900638 1.96900544097368 
! Gamma         !               4.37178346324374E-05 0.0210022856349029 1.30846979230969E-05 0.020971566367217 0.000388702973418304 0.0213654366459618 
! Port Impedance50               0                50               0                50               0                

0.002            0.234360653766957 -4.60214914154183 -26.312514731177 85.2196685018699 -114.629755703818 127.044673797358 
                -26.3125147311771 85.2196685018679 -0.00174212469360071 -4.56522461746346 -111.327175129641 91.0854386325736 
                -114.629755703733 127.044673797151 -111.327175129593 91.0854386327456 0.0328792353966079 0.547356045706235 
! Gamma         !               6.19791331504596E-05 0.0419798956677939 1.85491210778077E-05 0.0419357503447582 0.000556741333931439 0.0425062194966014 
! Port Impedance50               0                50               0                50               0                

0.003            0.0699950616408158 -6.90565393700142 -22.9050252865563 83.0403417587842 -122.752334540125 128.098492216936 
                -22.9050252865563 83.0403417587822 -0.019061393263331 -6.83608900078235 -107.685937993885 87.5918668974478 
                -122.752334540083 128.098492216654 -107.685937993873 87.5918668974559 0.0108197539637406 0.0714966011756886 
! Gamma         !               7.63481195040498E-05 0.0629516938161528 2.28485804710627E-05 0.0628981945365639 0.000690276335975541 0.0635929726620755 
! Port Impedance50               0                50               0                50               0                

0.004            0.00622388975183312 -9.1997885316054 -20.4655814888723 80.7926385881472 -126.480096473884 139.087094426722 
                -20.4655814888722 80.792638588146  -0.0381838088968266 -9.09783088800971 -105.171620333147 85.8470460428915 
                -126.480096473878 139.087094426469 -105.171620333144 85.8470460428933 0.00516762567825933 -0.115387785937396 
! Gamma         !               8.79234570865457E-05 0.0839214825109041 2.6312086044731E-05 0.0838600376341389 0.000798432282778575 0.0846604828005143 
! Port Impedance50               0                50               0                50               0                

0.005            -0.0356007045949673 -11.4792731150811 -18.5778854878376 78.5400794192261 -126.224825124408 152.43567048486  
                -18.5778854878375 78.5400794192255 -0.0608187173119347 -11.3469055580626 -103.248329793626 84.4660038702246 
                -126.224825124406 152.435670484822 -103.248329793625 84.4660038702243 0.00287352688020117 -0.2202773151413 
! Gamma         !               9.80536704280579E-05 0.104890189827709 2.93432701212526E-05 0.104821557200705 0.000893367908236942 0.105717597181362 
! Port Impedance50               0                50               0                50               0                

0.006            -0.0719863496915236 -13.7414891497493 -17.0462975488715 76.2979074834911 -124.172972360182 158.931329744815 
                -17.0462975488715 76.2979074834904 -0.0874115379212453 -13.580149047816 -101.692780038598 83.2207617031824 
                -124.172972360188 158.931329744825 -101.692780038597 83.2207617031875 0.0017180643758399 -0.296774254822787 
! Gamma         !               0.00010729422942094 0.125858027828809 3.21083027607898E-05 0.125782816624107 0.000980164815273734 0.12676640156405 
! Port Impedance50               0                50               0                50               0                

0.007            -0.108108750702817 -15.9840247951897 -15.7642166993882 74.0724452002053 -121.863535471552 160.565374522981 
                -15.7642166993882 74.0724452002049 -0.118000383806935 -15.7946562482203 -100.389668421034 82.0445920887653 
                -121.863535471553 160.565374522977 -100.389668421034 82.0445920887625 0.00106699884434196 -0.361749116451785 
! Gamma         !               0.000115862742907228 0.146825125780026 3.46722618971726E-05 0.146743854577359 0.00106081089280191 0.147808139958609 
! Port Impedance50               0                50               0                50               0                

0.008            -0.1459107086039 -18.2045586385446 -14.6672274777893 71.8675278706538 -119.70890235245 160.056474537821 
                -14.6672274777893 71.8675278706531 -0.152461615685083 -17.9877478262213 -99.2713803760324 80.912179695076  
                -119.708902352451 160.056474537831 -99.2713803760323 80.9121796950813 0.000674891974676497 -0.421469152814127 
! Gamma         !               0.000123871194872165 0.167791607715543 3.70686396856202E-05 0.167704708183043 0.00113631851570638 0.168843987252462 
! Port Impedance50               0                50               0                50               0                

0.009            -0.186150855049284 -20.4008865570616 -13.713401123291 69.686044315923  -117.769572479822 158.656282136737 
                -13.713401123291 69.6860443159226 -0.190593076704154 -20.1569689133096 -98.2947140216135 79.8127214732741 
                -117.769572479825 158.656282136734 -98.2947140216136 79.8127214732746 0.000428412230870141 -0.478574992962773 
! Gamma         !               0.000131400460153879 0.188757583663664 3.93216309604478E-05 0.188665410372481 0.00120741575108791 0.189874984316631 
! Port Impedance50               0                50               0                50               0                

0.01             -0.229076618658524 -22.570956559079 -12.8738757702751 67.5303944818815 -116.030111361211 156.878479415966 
                -12.8738757702751 67.5303944818812 -0.232148256486225 -22.3000949904639 -97.4302893542192 78.7414375244119 
                -116.030111361209 156.878479415967 -97.4302893542193 78.7414375244124 0.000269033213115431 -0.534291665991872 
! Gamma         !               0.000138518509989931 0.209723142164129 4.14515739625236E-05 0.209625987643953 0.00127471673653459 0.210901971242794 
! Port Impedance50               0                50               0                50               0                

0.011            -0.274687756680777 -24.7128968910728 -12.127897227335 65.4026435981583 -114.46304228025 154.940598015484 
                -12.1278972273349 65.4026435981583 -0.276853318026202 -24.4151373816551 -96.6571539245718 77.6962826378649 
                -114.463042280243 154.940598015496 -96.6571539245718 77.6962826378597 0.000164093085154947 -0.589231758817816 
! Gamma         !               0.000145283326235684 0.230688350742524 4.34758190524796E-05 0.230586460205307 0.00133874825458674 0.231925591275782 
! Port Impedance50               0                50               0                50               0                

0.012            -0.322853973123883 -26.8250355382627 -11.4600077783859 63.3045789332396 -113.04270380122 152.940267349655 
                -11.4600077783859 63.3045789332394 -0.324417303605237 -26.500346001219 -95.9597954743764 76.676499344514  
                -113.042703801217 152.940267349662 -95.9597954743764 76.6764993445141 9.42828788432115E-05 -0.643720340389861 
! Gamma         !               0.00015174326335163 0.251653260002319 4.54088358134128E-05 0.25154684319946 0.00139995175998113 0.252946328297861 
! Port Impedance50               0                50               0                50               0                

0.013            -0.373373258916211 -28.9059116300708 -10.8583567280628 61.2377335812461 -111.74763970224 150.923986670367 
                -10.8583567280628 61.2377335812456 -0.374539252592847 -28.5542087152142 -95.3263764775971 75.6819264915981 
                -111.747639702241 150.923986670369 -95.326376477597 75.6819264915991 4.76662336639626E-05 -0.697938278574506 
! Gamma         !               0.000157937786156994 0.272617908179713 4.72624335153502E-05 0.272507148068085 0.00145868889973183 0.273964549071764 
! Port Impedance50               0                50               0                50               0                

0.014            -0.426003584382183 -30.9542799102018 -10.3136359213896 59.20339964551   -110.560364618575 148.915161448175 
                -10.3136359213896 59.2033996455096 -0.426913703226736 -30.5754473280024 -94.7476351899807 74.7126504503733 
                -110.560364618575 148.915161448177 -94.7476351899808 74.7126504503764 1.6600082441943E-05 -0.751990089446848 
! Gamma         !               0.000163898741928121 0.293582324890219 4.9046141794851E-05 0.293467383673096 0.00151525231337909 0.294980538285703 
! Port Impedance50               0                50               0                50               0                

0.015            -0.480481565364726 -32.969109548346 -9.81838233581401 57.2026389612773 -109.466644452286 146.926174722018 
                -9.81838233581401 57.2026389612769 -0.481235196542447 -32.5630104926483 -94.2161719513821 73.7688234897316 
                -109.466644452288 146.92617472201  -94.2161719513821 73.7688234897326 -3.94656022547954E-06 -0.80593801039214 
! Gamma         !               0.00016965181668472 0.314546533826459 5.07676465211959E-05 0.314427557104079 0.00156987848314575 0.315994523968672 
! Port Impedance50               0                50               0                50               0                

0.016            -0.536534264419615 -34.9495784884929 -9.3665059172332 55.2362942505421 -108.454807899987 144.96386573415  
                -9.36650591723322 55.2362942505419 -0.537202055616954 -34.5160639806429 -93.7259690422454 72.8505684966691 
                -108.454807899986 144.963865734152 -93.7259690422454 72.8505684966676 -1.73560524850379E-05 -0.859819985364403 
! Gamma         !               0.000175217898744584 0.335510554564199 5.24331979005594E-05 0.335387674218776 0.00162275998429444 0.337006694615296 
! Port Impedance50               0                50               0                50               0                

0.017            -0.593887101822695 -36.8950643850268 -8.95296081779077 53.305001556143  -107.515190054809 143.032139016798 
                -8.95296081779077 53.3050015561427 -0.594519568774274 -36.4339788062521 -93.2720578749798 71.9579304105226 
                -107.515190054809 143.032139016795 -93.2720578749798 71.9579304105236 -2.59376908903943E-05 -0.913659569396245 
! Gamma         !               0.000180614219378765 0.3564744037227  5.40479518493864E-05 0.356347739990292 0.00167405583893539 0.358017210256008 
! Port Impedance50               0                50               0                50               0                

0.018            -0.652269395744621 -38.805133027738 -8.57351084268168 51.4092039892606 -106.639704158068 141.133262700589 
                -8.57351084268169 51.4092039892605 -0.652902645040491 -38.3163177138975 -92.8502823078153 71.090853882848  
                -106.639704158067 141.133262700589 -92.8502823078153 71.0908538828462 -3.12843094228896E-05 -0.967471583576364 
! Gamma         !               0.000185855242775675 0.377438095697372 5.56162363252621E-05 0.377307758726319 0.00172389964658282 0.379026209487258 
! Port Impedance50               0                50               0                50               0                

0.019            -0.711418349858034 -40.6795250187411 -8.2245584867407 49.5491665137595 -105.821516119144 139.268541719805 
                -8.22455848674072 49.5491665137594 -0.712077986454117 -40.1628205194509 -92.4571264991004 70.249176060779  
                -105.821516119143 139.268541719806 -92.4571264991005 70.2491760607786 -3.45004266204731E-05 -1.0212654440593 
! Gamma         !               0.000190953329716085 0.398401643125356 5.7141749926445E-05 0.398267734208428 0.00177240567222481 0.400033813961596 
! Port Impedance50               0                50               0                50               0                

0.02             -0.771081953957116 -42.5181413412984 -7.90301791806219 47.7249913937089 -105.054796817868 137.43868128485  
                -7.90301791806221 47.7249913937088 -0.771785814188797 -41.9733887585591 -92.0895871882007 69.4326282102249 
                -105.054796817867 137.438681284854 -92.0895871882006 69.4326282102251 -3.6352376509833E-05 -1.07504717266047 
! Gamma         !               0.000195919218371335 0.419365057191357 5.86277057586044E-05 0.419227669783577 0.00181967326724448 0.421040131347599 
! Port Impedance50               0                50               0                50               0                

0.021            -0.831021079106265 -44.3210283514009 -7.60621897140536 45.936633926525  -104.334532240508 135.643991531744 
                -7.60621897140538 45.9366339265248 -0.831781184423599 -43.7480700447902 -91.7450772308123 68.6408424758481 
                -104.334532240508 135.643991531745 -91.7450772308124 68.6408424758477 -3.73695266230455E-05 -1.12882063699926 
! Gamma         !               0.000200762367033745 0.440328347840819 6.00769339827364E-05 0.440187568427879 0.00186579002369797 0.442045257395541 
! Port Impedance50               0                50               0                50               0                

0.022            -0.891010949466079 -46.0883626258113 -7.33183343136838 44.1839181206791 -103.65637653217 133.884508125975 
                -7.33183343136838 44.1839181206789 -0.891834931115358 -45.4870424833676 -91.4213515501892 67.8733615154645 
                -103.65637653217 133.884508125976 -91.4213515501892 67.8733615154656 -3.79139257766579E-05 -1.18258832836655 
! Gamma         !               0.000205491197375423 0.461291523940105 6.14919545968983E-05 0.461147432794541 0.00191083401226095 0.463049277487926 
! Port Impedance50               0                50               0                50               0                

0.023            -0.950842117350991 -47.8204360137731 -7.07781760652987 42.466552029443  -103.016537056037 132.160067029105 
                -7.07781760652987 42.4665520294428 -0.951734274262754 -47.1905994270774 -91.1164494456328 67.1296495842742 
                -103.016537056037 132.160067029105 -91.1164494456328 67.1296495842756 -3.82290318181455E-05 -1.23635185589857 
! Gamma         !               0.000210113268455821 0.48225459340605 6.28750294964687E-05 0.482107265252616 0.00195487538065066 0.484052267889881 
! Port Impedance50               0                50               0                50               0                

0.024            -1.01032103561062 -49.5176411629832 -6.84236699205878 40.784142508879  -102.411683519632 130.470353486482 
                -6.84236699205879 40.7841425088789 -1.01128313303684 -48.859134802953 -90.8286490258884 66.4091041521429 
                -102.411683519632 130.47035348648  -90.8286490258885 66.4091041521444 -3.84742483919108E-05 -1.29011226333243 
! Gamma         !               0.000214635403727371 0.503217563316753 6.42282004714129E-05 0.503067067920169 0.00199797751756599 0.505054296815069 
! Port Impedance50               0                50               0                50               0                

0.025            -1.06927030138666 -51.1804577232624 -6.62388002831558 39.1362092232995 -101.838875372136 128.814936023114 
                -6.62388002831559 39.1362092232995 -1.0703021830002 -50.4931291839583 -90.5564307605446 65.7110674577103 
                -101.838875372136 128.814936023112 -90.5564307605446 65.71106745771   -3.87496372481862E-05 -1.34387023308817 
! Gamma         !               0.000219063786694963 0.524180440009562 6.55533178254345E-05 0.524026842693588 0.00204019792703938 0.526055425365887 
! Port Impedance50               0                50               0                50               0                

0.026            -1.12752863203259 -52.8094393732991 -6.42092879296608 37.5221977717145 -101.295503213162 127.193291377577 
                -6.42092879296607 37.5221977717143 -1.12862869554893 -52.0931367306654 -90.298447980465 65.0348376129937 
                -101.295503213162 127.193291377577 -90.298447980465 65.0348376129952 -3.91137109926724E-05 -1.39762621793416 
! Gamma         !               0.000223404035847823 0.545143229169053 6.68520627942896E-05 0.544986591273921 0.00208158891175684 0.547055708376017 
! Port Impedance50               0                50               0                50               0                

0.027            -1.18495062447171 -54.4052017665193 -6.23223504278618 35.9414918529559 -100.779241055659 125.604823703123 
                -6.23223504278619 35.9414918529558 -1.18611619582444 -53.6597730847313 -90.0535027409305 64.3796790143099 
                -100.779241055659 125.604823703122 -90.0535027409306 64.3796790143092 -3.9596283149846E-05 -1.4513805257063 
! Gamma         !               0.00022766126583689 0.566105935906227 6.81259658495863E-05 0.565946315190572 0.00212219813016993 0.568055195168156 
! Port Impedance50               0                50               0                50               0                

0.028            -1.24140634189875 -55.968411451024 -6.0566504307206 34.3934244247095 -100.288007080931 124.048879946127 
                -6.05665043072061 34.3934244247094 -1.2426339728439 -55.1937042591775 -89.820525872472 63.7448319138004 
                -100.288007080931 124.048879946129 -89.8205258724719 63.7448319138002 -4.02077484073727E-05 -1.50513337343233 
! Gamma         !               0.000231840139341133 0.587068564829524 6.9376422217396E-05 0.586906015822555 0.00216206906871229 0.589053930233069 
! Port Impedance50               0                50               0                50               0                

0.029            -1.29678076564034 -57.4997757850435 -5.89314001725948 32.8772878426426 -99.8199311018534 122.524762525408 
                -5.89314001725949 32.8772878426425 -1.29806647268604 -56.6956365399943 -89.5985603386988 63.1295210755501 
                -99.8199311018534 122.524762525408 -89.5985603386988 63.1295210755492 -4.09457633663572E-05 -1.55888492148096 
! Gamma         !               0.00023594491237384 0.608031120107995 7.06047054346078E-05 0.6078656944174  0.00220124145465033 0.610051953833909 
! Port Impedance50               0                50               0                50               0                

0.03             -1.35097314473206 -59.0000338427342 -5.7407684081806 31.3923429905867 -99.3733273742837 121.031739993523 
                -5.74076840818061 31.3923429905867 -1.35231260242057 -58.166307389113 -89.3867472336734 62.5329634894742 
                -99.3733273742835 121.031739993523 -89.3867472336733 62.5329634894737 -4.18000242013429E-05 -1.61263529469458 
! Gamma         !               0.000239979474686759 0.628993605527055 7.18119794388978E-05 0.628825352107834 0.0022397516248802 0.631049302539639 
! Port Impedance50               0                50               0                50               0                

0.031            -1.40389627111224 -60.469948284623 -5.59868800698619 29.9378274318843 -98.9466717101668 119.569056109673 
                -5.59868800698619 29.9378274318842 -1.40528496923934 -59.6064773197614 -89.1843139076252 61.9543751512406 
                -98.9466717101668 119.569056109673 -89.1843139076253 61.9543751512402 -4.27556467248068E-05 -1.66638459509247 
! Gamma         !               0.000243947386249938 0.649956024537241 7.29993094847357E-05 0.649784989926379 0.00227763285961675 0.652046009691973 
! Port Impedance50               0                50               0                50               0                

0.032            -1.4554757041604 -61.910298151769 -5.46612898622574 28.512962626207  -98.5385820799098 118.135937608654 
                -5.46612898622575 28.512962626207  -1.45690907605586 -61.0169227010437 -88.9905638255166 61.3929769406978 
                -98.5385820799099 118.135937608653 -88.9905638255167 61.3929769406981 -4.37955199740285E-05 -1.72013290917738 
! Gamma         !               0.000247851910379997 0.670918380296525 7.41676720566801E-05 0.670744608818008 0.00231491568612909 0.673042105810989 
! Port Impedance50               0                50               0                50               0                

0.033            -1.5056489645631 -63.3218725319589 -5.34239066862408 27.1169602661279 -98.1478020677615 116.731600865669 
                -5.34239066862409 27.1169602661279 -1.50712249177876 -62.3984294385661 -88.8048678494816 60.8479996477432 
                -98.1478020677612 116.73160086567  -88.8048678494816 60.8479996477433 -4.49019071031128E-05 -1.77388031185084 
! Gamma         !               0.000251696043861405 0.691880675706795 7.53179638829763E-05 0.691704209651065 0.00235162815554674 0.694037618945113 
! Port Impedance50               0                50               0                50               0                

0.034            -1.55436471413856 -64.7054650392413 -5.22683407444475 25.7490277941418 -97.7731866777655 115.355257606323 
                -5.22683407444476 25.7490277941419 -1.5558740115992 -63.751787471425 -88.6266567014702 60.3186882049358 
                -97.7731866777652 115.355257606324 -88.6266567014702 60.3186882049364 -4.60574971738054E-05 -1.82762686825763 
! Gamma         !               0.000255482544286606 0.712842913445116 7.64510101169739E-05 0.712663793226619 0.00238779609466094 0.715032574971423 
! Port Impedance50               0                50               0                50               0                

0.035            -1.6015819352749 -66.0618690441197 -5.11887544143607 24.4083731643627 -97.4136900903062 114.006119780059 
                -5.11887544143607 24.4083731643627 -1.60312282000242 -65.077786022231 -88.4554144121545 59.8043051921252 
                -97.4136900903062 114.006119780057 -88.4554144121545 59.8043051921251 -4.72460592171256E-05 -1.88137263442378 
! Gamma         !               0.000259213954786644 0.733805095990404 7.75675717376818E-05 0.733623360286448 0.00242344333415377 0.736026997852202 
! Port Impedance50               0                50               0                50               0                

0.036            -1.64726912101346 -67.3918735901622 -5.01798056205963 23.0942089143421 -97.0683550483474 112.683403695596 
                -5.01798056205963 23.0942089143421 -1.64883766684199 -66.3772095355013 -88.2906726003364 59.3041336808674 
                -97.0683550483473 112.683403695597 -88.2906726003364 59.304133680867  -4.8452811509141E-05 -1.93511765724397 
! Gamma         !               0.000262892626305167 0.754767225646127 7.86683522151902E-05 0.754582911519829 0.00245859191453182 0.757020909853463 
! Port Impedance50               0                50               0                50               0                

0.037            -1.69140348451875 -68.6962599330816 -4.92365981241   21.8057556118888 -96.7363036139886 111.38633350339  
                -4.92365981241   21.8057556118888 -1.69299606470951 -67.6508342401936 -88.1320054566818 58.81747948651   
                -96.7363036139888 111.386333503388 -88.1320054566818 58.8174794865107 -4.96645900221609E-05 -1.98886197417148 
! Gamma         !               0.00026652073756748 0.77572930455957 7.97540034863261E-05 0.775542447569305 0.00249326227104913 0.778014331730759 
! Port Impedance50               0                50               0                50               0                

0.038            -1.73397019469748 -69.9757986400479 -4.83546377042934 20.5422447398663 -96.4167290841904 110.114144100191 
                -4.83546377042934 20.5422447398664 -1.73558351398821 -68.8994252739401 -87.9790253286912 58.3436728940482 
                -96.4167290841902 110.114144100191 -87.9790253286913 58.343672894047  -5.08698786218343E-05 -2.04260561282579 
! Gamma         !               0.000270100312901722 0.796691334738213 8.08251312875431E-05 0.796501969035584 0.00252747339897494 0.799007282887166 
! Port Impedance50               0                50               0                50               0                

0.039            -1.77496164303526 -71.2312471897101 -4.75297933927382 19.3029210790689 -96.10888889257  108.866083523239 
                -4.75297933927382 19.3029210790689 -1.776592760385  -70.1237343092968 -87.8313788220006 57.882069920841  
                -96.1088888925699 108.866083523238 -87.8313788220006 57.8820699208407 -5.20587469121994E-05 -2.0963485906429 
! Gamma         !               0.000273633238075466 0.817653318063636 8.18822998939113E-05 0.817461476481705 0.00256124300063889 0.819999781507739 
! Port Impedance50               0                50               0                50               0                

0.04             -1.81437674528566 -72.4633480168071 -4.67582630616221 18.0870446457602 -95.8120983544644 107.641414894807 
                -4.67582630616221 18.0870446457602 -1.81602308837488 -71.3244976257446 -87.6887433475262 57.4320531755086 
                -95.8120983544645 107.641414894807 -87.6887433475262 57.4320531755095 -5.32227296306227E-05 -2.15009091463533 
! Gamma         !               0.000277121274315024 0.838615256303397 8.29260363142646E-05 0.838420970436581 0.0025945876157401 0.840991844674263 
! Port Impedance50               0                50               0                50               0                

0.041            -1.85222028044472 -73.6728269490923 -4.60365427860266 16.8938922365232 -95.525725136668 106.439417972302 
                -4.60365427860266 16.8938922365232 -1.85387965284448 -72.5024345750152 -87.5508240555098 56.9930323678737 
                -95.5257251366681 106.439417972302 -87.5508240555099 56.9930323678736 -5.43546720740509E-05 -2.2038325812908 
! Gamma         !               0.000280566070675329 0.859577151121173 8.39568339927482E-05 0.859380451398049 0.00262752273642786 0.861983488463583 
! Port Impedance50               0                50               0                50               0                

0.042            -1.88850226844954 -74.8603919883549 -4.53613994920404 15.7227586289378 -95.2491843527996 105.259390353671 
                -4.53613994920404 15.7227586289377 -1.89017285026666 -73.6582463913682 -87.4173511068187 56.5644445202871 
                -95.2491843527999 105.25939035367  -87.4173511068186 56.5644445202874 -5.54485591401602E-05 -2.25757357661439 
! Gamma         !               0.000283969174925371 0.880539004085517 8.49751560661346E-05 0.880339919835474 0.00266006290864685 0.882974728032311 
! Port Impedance50               0                50               0                50               0                

0.043            -1.92323738722572 -76.0267323914653 -4.47298464782967 14.5729574824088 -94.9819342010963 104.100648383129 
                -4.47298464782967 14.5729574824088 -1.92491772995319 -74.7926153025648 -87.2880772394097 56.1457539259952 
                -94.9819342010962 104.100648383129 -87.2880772394097 56.1457539259948 -5.64993402034019E-05 -2.31131387630712 
! Gamma         !               0.00028733204310815 0.901500816677431 8.59814382244862E-05 0.901299376192028 0.00269222182119479 0.90396557769028 
! Port Impedance50               0                50               0                50               0                

0.044            -1.95644442905268 -77.1725180114528 -4.41391214602009 13.4438219793389 -94.7234720743529 102.962527797653 
                -4.41391214602008 13.4438219793389 -1.95813344529748 -75.9062039013558 -87.1627755940625 55.7364518955445 