! Touchstone file from project EAST_ICRH_BportAntenna
! Exported from HFSS 2014.0.7
! Variables:
!  d_deemb = 0mm
!  x_spetum = 207mm
!  y_septum = 480mm
!  z_septum = 20mm
# GHZ S RI R 50.000000
! Modal data exported
! Port[1] = 1:1
! Port[2] = 2:1
! Port[3] = 3:1
! Port[4] = 4:1
0.02             -0.824520646911518 0.564342013954792 0.00559247204865448 0.00711679499361744 0.00110518842639699 0.00267106184319847 -0.000670146342442428 -0.00021851215588839 
                0.0055924720486545 0.00711679499361744 -0.824709535858597 0.564097623096188 -0.00102230311144974 -0.000788895522505181 0.00110610243646957 0.00267310514480054 
                0.00110518842639701 0.00267106184319846 -0.00102230311144973 -0.000788895522505159 -0.824706576645022 0.564097525642965 0.00558646582522792 0.0071034240579715 
                -0.000670146342442431 -0.000218512155888416 0.00110610243646956 0.00267310514480057 0.00558646582522795 0.0071034240579715 -0.824597909489228 0.564224405963825 
! Gamma         !               -0               0.419169004391195 -0               0.419169004391052 -0               0.419169004391329 -0               0.419169004390603 
! Port Impedance 50               0                50               0                50               0                50               0                

0.0205           -0.814992812002724 0.577886851605047 0.00591133683223493 0.007220986121649 0.0011311729637882 0.00271212008404489 -0.000717191111611143 -0.000212677832402216 
                0.00591133683223494 0.00722098612164901 -0.815188571240678 0.577644605847629 -0.00108358304151426 -0.000789191588428606 0.00113205450765708 0.00271422189348486 
                0.00113117296378822 0.00271212008404489 -0.00108358304151425 -0.000789191588428587 -0.815191597618942 0.577635526706793 0.00590466698363933 0.00720662752736463 
                -0.000717191111611144 -0.000212677832402239 0.00113205450765707 0.00271422189348489 0.00590466698363935 0.00720662752736463 -0.815076172016287 0.577763969899937 
! Gamma         !               0                0.429648229500879 0                0.429648229500577 0                0.4296482295008  0                0.429648229500363 
! Port Impedance 50               0                50               0                50               0                50               0                

0.021            -0.805165857468411 0.591365021697726 0.00624103403500586 0.00731645480305968 0.00115414375509819 0.00275262961379125 -0.000766965092188832 -0.000205050421027973 
                0.00624103403500588 0.00731645480305969 -0.805368268463328 0.591125620000762 -0.00114726841750357 -0.000787170728292418 0.00115498830686749 0.00275480095970529 
                0.0011541437550982 0.00275262961379124 -0.00114726841750356 -0.000787170728292401 -0.805378121312455 0.591107024200856 0.00623362422963861 0.00730107171090287 
                -0.000766965092188829 -0.000205050421027995 0.00115498830686749 0.00275480095970531 0.00623362422963863 0.00730107171090287 -0.805255726764076 0.591236711923268 
! Gamma         !               0                0.440127454610565 0                0.440127454610081 0                0.440127454610314 0                0.440127454610124 
! Port Impedance 50               0                50               0                50               0                50               0                

0.0215           -0.79503534624875 0.60477150890543 0.00658163006998085 0.00740249342389989 0.00117376172249349 0.00279292849739021 -0.000819604868380991 -0.000195334171429852 
                0.00658163006998087 0.00740249342389991 -0.795244133861851 0.604535663341274 -0.00121341316341175 -0.000782572709494157 0.00117456554619207 0.00279518158762909 
                0.0011737617224935 0.00279292849739021 -0.00121341316341175 -0.000782572709494145 -0.795261712552008 0.604507025132257 0.00657339753930669 0.00738604742869817 
                -0.000819604868380987 -0.000195334171429872 0.00117456554619208 0.00279518158762911 0.00657339753930669 0.00738604742869817 -0.795132164716182 0.60463762203496 
! Gamma         !               0                0.450606679720251 0                0.450606679719544 0                0.450606679719869 0                0.450606679719885 
! Port Impedance 50               0                50               0                50               0                50               0                

0.022            -0.784596790734401 0.618100985270313 0.00693315648136924 0.00747834756943132 0.00118969341189729 0.0028334168711069 -0.000875235452524629 -0.000183189602182347 
                0.00693315648136925 0.00747834756943134 -0.784811619477827 0.617869416168336 -0.00128205669405638 -0.000775105524199201 0.00119045370261347 0.00283576506374136 
                0.00118969341189731 0.0028334168711069 -0.00128205669405638 -0.000775105524199191 -0.784837884110774 0.617830221939391 0.00692401105218336 0.00746079900654981 
                -0.000875235452524624 -0.000183189602182366 0.00119045370261348 0.00283576506374137 0.00692401105218335 0.0074607990065498 -0.784701027468204 0.61796137957494 
! Gamma         !               0                0.461085904829937 0                0.461085904828919 0                0.461085904829459 0                0.461085904829646 
! Port Impedance 50               0                50               0                50               0                50               0                

0.0225           -0.77384566478446 0.631347793267463 0.0072956038267076 0.00754321472601893 0.00120161894692745 0.00287456260752172 -0.000933963781461524 -0.00016822928924425 
                0.00729560382670761 0.00754321472601895 -0.774066135780835 0.631121223463802 -0.0013532187067412 -0.000764442831655244 0.00120233396997853 0.00287702036541747 
                0.00120161894692746 0.00287456260752172 -0.0013532187067412 -0.000764442831655235 -0.774102109434064 0.631070974978516 0.00728544690475123 0.0075245231824984 
                -0.000933963781461519 -0.000168229289244268 0.00120233396997855 0.00287702036541748 0.00728544690475122 0.0075245231824984 -0.773957819103882 0.631202336472488 
! Gamma         !               0                0.471565129939622 0                0.47156512993808 0                0.471565129939084 0                0.471565129939409 
! Port Impedance 50               0                50               0                50               0                50               0                

0.023            -0.762777418088497 0.644505928421876 0.00766891474787844 0.00759624322658854 0.00120924182136298 0.00291690656523142 -0.000995870606437543 -0.000150013921011153 
                0.00766891474787845 0.00759624322658857 -0.763003067048468 0.644285076711779 -0.00142689282274964 -0.000750221634021307 0.0012099110458513 0.00291948939532935 
                0.00120924182136299 0.00291690656523142 -0.00142689282274965 -0.0007502216340213 -0.763049837988284 0.644223294699424 0.00765763829022331 0.00757636829242969 
                -0.000995870606437539 -0.00015001392101117 0.00120991104585132 0.00291948939532935 0.0076576382902233 0.00757636829242968 -0.76289802037881 0.644354500033478 
! Gamma         !               0                0.482044355049305 0                0.482044355046502 0                0.482044355048738 0                0.482044355049172 
! Port Impedance 50               0                50               0                50               0                50               0                

0.0235           -0.75138749326802 0.657569021792459 0.00805297608241337 0.00763653153943027 0.0012123007523924 0.00296106704084799 -0.00106100052951967 -0.000128048945466236 
                0.00805297608241339 0.0076365315394303 -0.751617789820808 0.657354595795851 -0.00150303888788024 -0.000732040402523373 0.00121292497570582 0.00296379142082578 
                0.00121230075239241 0.00296106704084799 -0.00150303888788025 -0.000732040402523368 -0.75167651363959 0.65728082393063 0.00804046161066987 0.00761543383201621 
                -0.00106100052951967 -0.000128048945466252 0.00121292497570584 0.00296379142082579 0.00804046161066986 0.0076154338320162 -0.751517105608816 0.657411515566714 
! Gamma         !               0                0.492523580158986 0                0.492523580145847 0                0.492523580158421 0                0.492523580158936 
! Port Impedance 50               0                50               0                50               0                50               0                

0.024            -0.73967134611219 0.670530322787184 0.00844760983433668 0.00766312804759319 0.00121058378121466 0.00300774292228927 -0.00112934995463157 -0.000101782252566992 
                0.0084476098343367 0.00766312804759322 -0.739905694809684 0.670323011581888 -0.00158157373623953 -0.000709457954416282 0.00121116524170287 0.00301062621893459 
                0.00121058378121467 0.00300774292228927 -0.00158157373623954 -0.000709457954416279 -0.739977596371923 0.670236820935747 0.00843372755898776 0.00764077053545101 
                -0.00112934995463157 -0.000101782252567006 0.00121116524170289 0.00301062621893459 0.00843372755898774 0.007640770535451 -0.739810562663509 0.670366649301482 
! Gamma         !               0                0.503002805268663 0                0.503002805273383 0                0.50300280526813 0                0.503002805268703 
! Port Impedance 50               0                50               0                50               0                50               0                

0.0245           -0.727624469297961 0.683382682957101 0.00885256278972091 0.00767503153585132 0.00120394473405481 0.00305771490582804 -0.00120085276777145 -7.06034762348122E-005 
                0.00885256278972092 0.00767503153585134 -0.727862212551733 0.683183149992004 -0.00166236023210811 -0.000681993488073863 0.00120448721149539 0.00306077529149368 
                0.00120394473405482 0.00305771490582804 -0.00166236023210812 -0.00068199348807386 -0.727948587811161 0.683084143811752 0.00883717093349034 0.00765138117463397 
                -0.00120085276777145 -7.06034762348245E-005 0.0012044872114954 0.00306077529149368 0.00883717093349032 0.00765138117463396 -0.727773916425916 0.683212772232525 
! Gamma         !               0                0.513482030378333 0                0.51348203038027 0                0.513482030377863 0                0.513482030378473 
! Port Impedance 50               0                50               0                50               0                50               0                

0.025            -0.715242419833938 0.696118541626157 0.00926749453196197 0.00767119270285955 0.00119232203520168 0.00311184399308716 -0.0012753636532164 -3.38456625976312E-005 
                0.00926749453196198 0.00767119270285958 -0.715482842825387 0.695927418676016 -0.00174519444366658 -0.000649128315677507 0.00119283094039102 0.00311510036738313 
                0.00119232203520169 0.00311184399308715 -0.0017451944436666 -0.000649128315677504 -0.715585060219229 0.695815237700244 0.00925043896594709 0.00764622237412816 
                -0.00127536365321641 -3.38456625976405E-005 0.00119283094039104 0.00311510036738313 0.00925043896594708 0.00764622237412816 -0.715402755973937 0.695942345740291 
! Gamma         !               -0               0.523961255487992 -0               0.523961255489196 -0               0.523961255487618 -0               0.52396125548825 
! Port Impedance 50               0                50               0                50               0                50               0                

0.0255           -0.702520850265221 0.708729914430712 0.00969196358845705 0.0076505171588625 0.00117575967072266 0.00317106633681568 -0.00135263910815 9.20977352353129E-006 
                0.00969196358845707 0.00765051715886251 -0.702763187867727 0.708547797247283 -0.00182979087904116 -0.000610309992869893 0.0011762421303992 0.00317453826150975 
                0.00117575967072266 0.00317106633681567 -0.00182979087904118 -0.00061030999286989 -0.702882689232416 0.708422125448005 0.0096730779119124 0.00762420786678175 
                -0.00135263910815001 9.20977352352576E-006 0.00117624213039921 0.00317453826150976 0.00967307791191238 0.00762420786678174 -0.702692765542968 0.708547410056818 
! Gamma         !               0                0.534440480597633 0                0.534440480598527 0                0.534440480597395 0                0.534440480598044 
! Port Impedance 50               0                50               0                50               0                50               0                

0.026            -0.689455543359885 0.721208386033967 0.0101254114570447 0.00761187056626081 0.00115442983227662 0.00323638338252036 -0.00143231645680863 5.9323709153066E-005 
                0.0101254114570447 0.00761187056626082 -0.689698988332744 0.721035832880716 -0.00191576585769291 -0.000564959726390775 0.00115489478088546 0.0032400910363792 
                0.00115442983227662 0.00323638338252035 -0.00191576585769293 -0.000564959726390775 -0.689837289366663 0.720896403410688 0.0101045176653161 0.00758421379591203 
                -0.00143231645680865 5.93237091530646E-005 0.00115489478088547 0.00324009103637921 0.0101045176653161 0.00758421379591201 -0.689639759016151 0.721019576848058 
! Gamma         !               0                0.544919705707244 0                0.54491970570801 0                0.544919705707193 0                0.544919705707904 
! Port Impedance 50               0                50               0                50               0                50               0                

0.0265           -0.676042449551362 0.7335451083958  0.0105671443122689 0.00755408684613877 0.00112865640312837 0.00330884618433471 -0.00151389150642778 0.000117284352929868 
                0.0105671443122689 0.00755408684613878 -0.676286161295745 0.733382642102208 -0.00200261931356215 -0.000512484136912179 0.00112911469757322 0.00331281034029561 
                0.00112865640312837 0.00330884618433471 -0.00200261931356217 -0.000512484136912179 -0.676444851291932 0.733229243507248 0.0105440542018663 0.00752508691485049 
                -0.0015138915064278 0.000117284352929872 0.00112911469757323 0.00331281034029561 0.0105440542018663 0.00752508691485048 -0.676239717242467 0.733350027311039 
! Gamma         !               0                0.555398930816798 0                0.555398930817567 0                0.555398930817011 0                0.555398930827914 
! Port Impedance 50               0                50               0                50               0                50               0                

0.027            -0.662277725833472 0.745730805953138 0.0110163123619503 0.00747598071635067 0.0010989379875438 0.00338953280638895 -0.00159669594559624 0.00018388535355337 
                0.0110163123619503 0.00747598071635068 -0.662520838226393 0.745578920179508 -0.00208971567011173 -0.000452292639041947 0.00109940256701159 0.00339377482652415 
                0.0010989379875438 0.00338953280638895 -0.00208971567011175 -0.000452292639041947 -0.662701579111707 0.745411402600487 0.0109908297918224 0.00744565685575881 
                -0.00159669594559626 0.000183885353553379 0.0010994025670116 0.00339377482652417 0.0109908297918224 0.00744565685575879 -0.662488826905688 0.745529517167746 
! Gamma         !               0                0.565878155926224 0                0.565878155927169 0                0.565878155926849 0                0.565878155927012 
! Port Impedance 50               0                50               0                50               0                50               0                

0.0275           -0.648157774157409 0.757755788797726 0.0114718871440971 0.00737636624529261 0.00106596864261946 0.00347951791088938 -0.00167987616401276 0.000259895720570196 
                0.0114718871440971 0.00737636624529261 -0.64839940065615 0.757614958577933 -0.00217626491671816 -0.000383821835278317 0.00106645475806682 0.00348405974319805 
                0.00106596864261945 0.00347951791088937 -0.00217626491671818 -0.000383821835278318 -0.648603925332191 0.757433239745069 0.0114438112009213 0.00734475403951223 
                -0.00167987616401278 0.000259895720570208 0.00106645475806683 0.00348405974319806 0.0114438112009213 0.0073447540395122 -0.648383518996249 0.757548389692413 
! Gamma         !               -0               0.576357381035267 -0               0.576357381036799 -0               0.576357381036707 -0               0.576357381036878 
! Port Impedance 50               0                50               0                50               0                50               0                

0.028            -0.633679276721581 0.769609974376234 0.0119326376396479 0.00725408356857956 0.00103065389192376 0.0035798340454245 -0.0017623758523564 0.000346020553493989 
                0.0119326376396479 0.00725408356857956 -0.633918510661753 0.769480670251495 -0.00226130568128977 -0.000306568337621563 0.00103117942803157 0.00358469819152193 
                0.00103065389192376 0.0035798340454245 -0.00226130568128978 -0.000306568337621564 -0.634148620754658 0.769284741043196 0.0119017666103347 0.00722123525757439 
                -0.00176237585235642 0.000346020553494005 0.00103117942803158 0.00358469819152195 0.0119017666103347 0.00722123525757437 -0.633920504259433 0.769396597351755 
! Gamma         !               0                0.586836606141646 0                0.58683660614645 0                0.586836606146586 0                0.586836606146674 
! Port Impedance 50               0                50               0                50               0                50               0                

0.0285           -0.618839225015565 0.781282917331553 0.0123971070437708 0.00710803633708158 0.000994119062956714 0.00369142483394683 -0.00184292546989242 0.000442852105334804 
                0.0123971070437708 0.00710803633708159 -0.619075133130066 0.78116562139879 -0.00234369294344654 -0.00022013123064764 0.000994704965963837 0.00369663423953487 
                0.000994119062956711 0.00369142483394683 -0.00234369294344655 -0.000220131230647641 -0.619332696364036 0.780955550768794 0.0123632428532575 0.00707401940792723 
                -0.00184292546989244 0.000442852105334823 0.00099470496596385 0.00369663423953488 0.0123632428532575 0.00707401940792721 -0.619096802450878 0.781063731715252 
! Gamma         !               0                0.597315831261558 0                0.597315831256117 0                0.597315831256488 0                0.597315831256451 
! Port Impedance 50               0                50               0                50               0                50               0                

0.029            -0.603634939311194 0.792763845834803 0.0128635935273  0.00693724265759397 0.000957706618515473 0.00381509128384919 -0.00192004234852075 0.000550811588662251 
                0.0128635935273  0.00693724265759398 -0.603866547085909 0.792659066999249 -0.00242209403615156 -0.000124264837439541 0.000958377423902502 0.00382066908789479 
                0.000957706618515474 0.0038150912838492 -0.00242209403615156 -0.000124264837439544 -0.604153494597244 0.792435006161427 0.0128265459324479 0.00690213615435657 
                -0.00192004234852077 0.000550811588662267 0.000958377423902513 0.0038206690878948 0.0128265459324479 0.00690213615435655 -0.603909762018147 0.792539060019004 
! Gamma         !               0                0.607795056367822 0                0.607795056365796 0                0.607795056366415 0                0.607795056366222 
! Port Impedance 50               0                50               0                50               0                50               0                

0.0295           -0.588064075632985 0.804041701295813 0.01333014043332 0.00674090190730878 0.000922959109668361 0.00395143373039475 -0.00199204568689841 0.000670083412497685 
                0.01333014043332 0.0067409019073088 -0.588290344167869 0.803949986254503 -0.00249499764064357 -1.8941379419053E-005 0.000923743532886789 0.00395740279962877 
                0.000922959109668368 0.00395143373039476 -0.00249499764064357 -1.89413794190614E-005 -0.588608668141178 0.803712172158   0.0132897297827965 0.00670479009758032 
                -0.00199204568689843 0.000670083412497698 0.000923743532886795 0.00395740279962878 0.0132897297827965 0.00670479009758031 -0.588357067155626 0.80381156526265 
! Gamma         !               0                0.618274281476859 0                0.618274281475486 0                0.618274281476372 0                0.61827428147599 
! Port Impedance 50               0                50               0                50               0                50               0                

0.03             -0.57212461826971 0.815105176900865 0.0137945440338901 0.00651847829981759 0.000891584848495815 0.00410079345182871 -0.00205709078201862 0.000800545203730474 
                0.0137945440338901 0.00651847829981761 -0.572344414050323 0.815027112965602 -0.00256074137776607 9.55786336212788E-005 0.000892516361559493 0.00410717563160981 
                0.000891584848495828 0.00410079345182871 -0.00256074137776606 9.55786336212634E-005 -0.572696166084  0.814775871259672 0.0137506008904367 0.00648144188433049 
                -0.00205709078201864 0.000800545203730479 0.000892516361559492 0.00410717563160981 0.0137506008904367 0.0064814418843305 -0.572436730214336 0.814869985232844 
! Gamma         !               -0               0.628753506586289 -0               0.628753506585184 -0               0.628753506586364 -0               0.628753506585755 
! Port Impedance 50               0                50               0                50               0                50               0                

0.0305           -0.55581485763605 0.825942749358423 0.0142543898063031 0.00626979869942635 0.000865404550118668 0.00426319950108534 -0.00211322632983908 0.000941698912200187 
                0.0142543898063031 0.00626979869942639 -0.556026918221581 0.825878955850691 -0.00261756398260706 0.00021867299921385 0.000866521822601087 0.0042700145389555 
                0.000865404550118691 0.00426319950108534 -0.00261756398260704 0.000218672999213824 -0.556414208711957 0.825614703757911 0.014206749395606 0.00623190477924674 
                -0.00211322632983911 0.000941698912200183 0.000866521822601077 0.00427001453895551 0.014206749395606 0.00623190477924676 -0.556147069226629 0.825702844735829 
! Gamma         !               0                0.63923273169585 0                0.639232731694891 0                0.6392327316964  0                0.63923273169552 
! Port Impedance 50               0                50               0                50               0                50               0                

0.031            -0.53913335559931 0.836542697911941 0.014707130070279 0.00599515616585775 0.000846279105714455 0.00443832749549909 -0.00215847730558714 0.00109261030305718 
                0.014707130070279 0.0059951561658578 -0.539336255926274 0.836493804132628 -0.00266368739861678 0.000349289416006954 0.000847626151766564 0.00444559164471896 
                0.000846279105714487 0.00443832749549909 -0.00266368739861675 0.000349289416006912 -0.539761254621101 0.836217053779217 0.0146556197637354 0.00595644971834392 
                -0.00215847730558719 0.00109261030305717 0.000847626151766544 0.00444559164471897 0.0146556197637355 0.00595644971834396 -0.539486672667909 0.836298474977878 
! Gamma         !               0                0.64971195680547 0                0.649711956804604 0                0.649711956806496 0                0.649711956805283 
! Port Impedance 50               0                50               0                50               0                50               0                

0.0315           -0.522078902889823 0.846893105393461 0.0151502147290182 0.00569540181247737 0.000836021254675477 0.00462547759005095 -0.00219095370051521 0.00125186586842812 
                0.0151502147290182 0.00569540181247742 -0.522271027675819 0.846859715345916 -0.00269743182282026 0.000485893780413755 0.000837647112488181 0.00463320197565103 
                0.000836021254675517 0.00462547759005093 -0.00269743182282022 0.00048589378041369 -0.522735965271815 0.84657107819048 0.015094634135165 0.00565590319148656 
                -0.00219095370051528 0.0012518658684281 0.000837647112488145 0.00463320197565105 0.0150946341351651 0.00565590319148662 -0.522454356144966 0.846645014760099 
! Gamma         !               0                0.660191181915124 0                0.660191181914323 0                0.660191181916673 0                0.660191181915046 
! Port Impedance 50               0                50               0                50               0                50               0                

0.032            -0.504650475404733 0.856981837932539 0.0155812798868861 0.00537199702958094 0.000836296934623466 0.0048235782352224 -0.00220898229316059 0.0014175572384547 
                0.0155812798868862 0.005371997029581 -0.504830002910465 0.856964484431287 -0.00271736221131608 0.000626450177166889 0.000838254726743044 0.00483176715466102 
                0.000836296934623511 0.00482357823522237 -0.00271736221131604 0.000626450177166797 -0.505337173282047 0.856664677382216 0.0155213760828747 0.00533171117185743 
                -0.0022089822931607 0.00141755723845468 0.000838254726742996 0.00483176715466106 0.0155213760828748 0.00533171117185751 -0.505049117938553 0.856730390042483 
! Gamma         !               0                0.670670407024797 0                0.670670407024048 0                0.67067040702697 0                0.670670407024809 
! Port Impedance 50               0                50               0                50               0                50               0                

0.0325           -0.486847197561828 0.866796502722477 0.0159983836312223 0.00502698988674591 0.000848524982362948 0.00503122031826723 -0.00221125491169769 0.00158730315681855 
                0.0159983836312224 0.00502698988674596 -0.487012098545026 0.866795595718524 -0.00272245782642607 0.000768449129320343 0.000850870274320648 0.00503986973296487 
                0.000848524982362994 0.00503122031826718 -0.00272245782642603 0.000768449129320219 -0.487563860919779 0.866485449339465 0.0159338284503994 0.00498593204198651 
                -0.00221125491169785 0.00158730315681855 0.000850870274320594 0.00503986973296492 0.0159338284503996 0.00498593204198659 -0.487270101686455 0.866542271281991 
! Gamma         !               0                0.681149632134483 0                0.681149632133778 0                0.681149632137458 0                0.681149632134571 
! Port Impedance 50               0                50               0                50               0                50               0                

0.033            -0.468668320954833 0.876324386551029 0.0164002543916848 0.00466288059389092 0.00087378594085234 0.0052467229090828 -0.0021969827058411 0.00175831776360721 
                0.016400254391685 0.00466288059389095 -0.468816374291797 0.876340161844344 -0.00271228767874112 0.00090899888404423 0.000876574430299817 0.00525581943585916 
                0.000873785940852386 0.00524672290908273 -0.00271228767874109 0.000908998884044067 -0.469415154518654 0.876020630719897 0.0163306349825499 0.004621118970361 
                -0.0021969827058413 0.00175831776360723 0.000876574430299758 0.00525581943585923 0.0163306349825502 0.00462111897036104 -0.469116574567857 0.876068011303758 
! Gamma         !               0                0.691628857244178 0                0.691628857243513 0                0.691628857248279 0                0.691628857244333 
! Port Impedance 50               0                50               0                50               0                50               0                

0.0335           -0.450113225220915 0.885552381037376 0.0167864913212385 0.00428235919312602 0.000912751284428555 0.00546822746952996 -0.00216604223858211 0.00192753127496634 
                0.0167864913212387 0.00428235919312601 -0.450242048925159 0.885584855653331 -0.00268716595052748 0.00104498787505238 0.00091603599661874 0.00547774817714269 
                0.000912751284428593 0.00546822746952987 -0.00268716595052747 0.00104498787505218 -0.450890338992842 0.885257030580499 0.016711326284442 0.004240066669018 
                -0.00216604223858235 0.00192753127496641 0.000916035996618683 0.00547774817714279 0.0167113262844423 0.00424006666901801 -0.450587927984178 0.885294569722293 
! Gamma         !               0                0.70210808235388 0                0.702108082353253 0                0.702108082359769 0                0.702108082354095 
! Port Impedance 50               0                50               0                50               0                50               0                

0.034            -0.431181445335756 0.894466903038578 0.0171576419390604 0.00388793706525089 0.000965642916673948 0.00569381283252881 -0.00211909602931491 0.00209176531793974 
                0.0171576419390606 0.00388793706525082 -0.431288539229605 0.894515842394815 -0.00264825559685153 0.00117331456278641 0.000969471223779314 0.00570372607341742 
                0.000965642916673973 0.00569381283252871 -0.00264825559685156 0.00117331456278618 -0.43198889443251 0.894180963693997 0.0170764297669939 0.00384543479556727 
                -0.00211909602931518 0.0020917653179399 0.000969471223779264 0.00570372607341754 0.0170764297669942 0.00384543479556721 -0.431683705030616 0.894208432470538 